keeping active oxygen 99
keeping algeria french 1037
keeping almost abreast 40
keeping always before 1209
keeping always behind 103
keeping always beyond 84
keeping another person 115
keeping another secret 51
keeping backup copies 213
keeping boarding houses 112
keeping canada united 56
keeping carbon copies 73
keeping carbon dioxide 79
keeping clearly before 321
keeping courts amongst 115
keeping divers english 43
keeping dollar prices 40
keeping drinking places 50
keeping eastern europe 114
keeping energy levels 94
keeping energy prices 172
keeping excess weight 58
keeping export prices 66
keeping feelings inside 145
keeping fiscal policy 60
keeping forces should 149
keeping french troops 124
keeping future misery 55
keeping future options 134
keeping gambling houses 132
keeping german forces 67
keeping german troops 63
keeping hidden behind 111
keeping import duties 50
keeping import prices 80
keeping itself abreast 179
keeping itself afloat 97
keeping itself always 102
keeping itself behind 49
keeping itself entire 207
keeping itself hidden 150
keeping itself intact 114
keeping liquid assets 42
keeping little brother 92
keeping marine fishes 71
keeping market prices 79
keeping myself afloat 111
keeping myself amused 91
keeping myself hidden 166
keeping nuclear weapons 1119
keeping painting always 40
keeping potted plants 54
keeping prices fairly 41
keeping prices higher 242
keeping prices stable 845
keeping public houses 143
keeping public opinion 446
keeping public places 112
keeping public sector 67
keeping public spending 91
keeping readers abreast 208
keeping retail prices 313
keeping russian troops 103
keeping school without 54
keeping secret something 40
keeping silent before 86
keeping soiled clothes 227
keeping something hidden 141
keeping something inside 121
keeping something secret 706
keeping soviet forces 42
keeping soviet troops 182
keeping standing armies 253
keeping stress levels 311
keeping strict purdah 58
keeping system should 772
keeping tables loaded 132
keeping ticket prices 134
keeping united nations 53
keeping united states 550
keeping various groups 41
keeping whereof should 57
keeps always before 304
keeps always pulled 49
keeps another person 43
keeps backup copies 99
keeps before itself 98
keeps bouncing around 90
keeps bursting through 96
keeps carbon dioxide 59
keeps catching clouds 53
keeps circling around 803
keeps clearly before 271
keeps climbing higher 81
keeps climbing upward 41
keeps firmly before 46
keeps flashing through 116
keeps floating around 212
keeps glancing around 223
keeps glancing toward 43
keeps hidden behind 111
keeps hidden inside 54
keeps hovering around 143
keeps itself abreast 178
keeps itself afloat 46
keeps itself always 46
keeps itself beyond 72
keeps itself closed 88
keeps itself fitted 50
keeps itself hidden 296
keeps itself intact 139
keeps itself secret 123
keeps little record 49
keeps mumbling something 129
keeps nuclear weapons 53
keeps opinion always 41
keeps passion always 62
keeps prices higher 286
keeps prices stable 124
keeps public opinion 52
keeps readers abreast 194
keeps readers guessing 149
keeps renewing itself 490
keeps repeating itself 8650
keeps repeating something 55
keeps revealing itself 458
keeps shifting around 418
keeps silent before 116
keeps slipping through 603
keeps sniffing around 42
keeps something hidden 60
keeps spinning around 562
keeps swirling around 94
keeps thrusting itself 130
keeps twenty horses 71
keeps whirling around 111
kenning without further 74
khaki cotton shorts 44
khaki safari clothes 140
khaki safari jacket 394
khaki safari outfit 165
khaki safari shorts 145
kicking around inside 237
kicking myself around 42
killing another animal 263
killing another inmate 157
killing another member 63
killing another muslim 51
killing another person 5308
killing another without 197
killing anyone before 44
killing anyone without 44
killing became murder 181
killing cattle belonging 56
killing fatted calves 131
killing fellow humans 99
killing female babies 163
killing ground before 66
killing ground behind 40
killing little babies 45
killing myself before 163
killing myself laughing 52
killing myself slowly 51
killing prison guards 44
killing someone without 140
killing something inside 128
killing twenty indians 43
killing twenty million 71
killing unborn babies 181
killing united states 127
killing without intent 154
killing without malice 846
kills another animal 592
kills another muslim 46
kills another nigger 62
kills another person 3292
kills another should 104
kills another without 904
kills anthrax spores 303
kills joanna burden 93
kills myrtle wilson 65
kills sexual desire 98
kills without malice 49
kinda looked around 48
kinds became common 65
kinds became scarce 49
kinds differ greatly 54
kinds offish caught 45
kinds passed through 208
kinds should always 105
kinds standing around 52
kinds through earlier 43
kinds without number 68
kinds without regard 138
kingdom almost twenty 53
kingdom almost without 99
kingdom already exists 70
kingdom became united 112
kingdom better fitted 204
kingdom called england 289
kingdom called france 43
kingdom except london 59
kingdom except through 105
kingdom formed itself 46
kingdom itself became 45
kingdom itself should 48
kingdom kneeling around 104
kingdom lagged behind 41
kingdom openly avowed 61
kingdom passed through 443
kingdom seemed likely 118
kingdom should accept 127
kingdom should always 76
kingdom should become 595
kingdom should depart 42
kingdom should depend 48
kingdom should endure 106
kingdom should extend 59
kingdom should remain 344
kingdom should retain 108
kingdom should return 85
kingdom should revert 70
kingdom should suffer 84
kingdom showed itself 51
kingdom through christ 84
kingdom without fighting 87
kingdom without further 319
kingdom without injury 81
kingdom without regard 50
kingdom without regret 46
kingdom without special 152
kingdom without states 62
kingdom without striking 42
kirks without organs 73
kissing another person 193
kissing madame bovary 63
kites abroad passed 40
kites hurrying toward 74
kitty corner across 41
knave betray another 56
knave without malice 138
kneel before another 193
kneel before anyone 174
kneel before christ 523
kneel before images 233
kneel humbly before 445
knees almost buckle 106
knees almost buckling 140
knees almost failed 59
knees almost touching 2153
knees barely touching 73
knees became wobbly 98
knees before another 124
knees before anyone 73
knees before christ 216
knees before dorothea 77
knees before elijah 192
knees before ladies 95
knees before madame 88
knees before sancho 52
knees beside sancho 75
knees broken through 109
knees crawling around 79
knees crawling through 56
knees crawling toward 43
knees flexed toward 95
knees gently toward 43
knees locked around 129
knees partly flexed 129
knees pointing toward 57
knees pulled toward 80
knees raised toward 46
knees remain flexed 248
knees searching through 63
knees should always 182
knees should remain 192
knees showed through 261
knees through narrow 78
knees turned inward 229
knees without counting 45
knees without russian 40
knees without touching 97
knelt before another 45
knelt before bishop 93
knelt before christ 94
knelt before edward 128
knelt before images 50
knelt before madame 47
knelt before turpin 61
knelt before william 48
knelt beside another 50
knelt beside michael 59
knelt humbly before 511
knife around inside 399
knife before planting 43
knife before removing 86
knife blades without 70
knife buried itself 267
knife carved uncouth 115
knife driven through 197
knife flashing through 56
knife flashing toward 41
knife gently around 60
knife gleamed before 108
knife handle sticking 157
knife hidden behind 201
knife hidden inside 176
knife measuring spoons 67
knife passed across 196
knife passed behind 89
knife passed through 1517
knife passes through 470
knife piercing through 93
knife plunged through 87
knife pushed through 67
knife ripped through 155
knife sailed through 53
knife should always 448
knife should follow 47
knife slashing across 47
knife slashing through 73
knife sliced across 80
knife sliced through 1381
knife slices through 176
knife slides through 143
knife slowly across 96
knife slowly through 48
knife stabbing through 48
knife sticking through 93
knife struck something 124
knife switch should 102
knife through batter 105
knife through butter 9492
knife through cheese 355
knife tucked inside 121
knife turned toward 70
knife twisting inside 190
knife upward through 44
knife without damaging 88
knife without injuring 47
knock became louder 84
knock before entering 5610
knock creeping closer 52
knock double knocks 260
knock loudly before 315
knock loudly enough 42
knock sensor signal 426
knock through england 45
knots passed through 43
knots served instead 113
knots should always 51
knowing another passion 43
knowing another person 1190
knowing christ better 115
knowing christ through 61
knowing clearly whether 56
knowing enough english 275
knowing enough french 41
knowing except through 83
knowing future events 274
knowing glance before 55
knowing glance passed 83
knowing glance toward 115
knowing hardly anyone 51
knowing inside myself 59
knowing itself through 133
knowing little beyond 287
knowing little creeping 69
knowing little english 766
knowing little enough 94
knowing little except 50
knowing little fellow 123
knowing little french 100
knowing little smiles 40
knowing modern nations 133
knowing myself better 280
knowing nature through 58
knowing neither english 87
knowing neither french 49
knowing neither whence 268
knowing nobody beyond 47
knowing occurs through 43
knowing public opinion 98
knowing reality through 53
knowing something before 119
knowing something better 98
knowing something beyond 67
knowing something exists 44
knowing something secret 278
knowing something special 58
knowing something through 125
knowing something without 312
knowing through direct 86
knowing whether another 199
knowing whether anyone 433
knowing whether bleeding 104
knowing whether changes 70
knowing whether christ 66
knowing whether nature 41
knowing whether prices 43
knowing whether someone 355
knowing whether something 342
knowing without reasoning 97
known abroad before 98
known abroad mainly 46
known abroad through 556
known access points 64
known across campus 93
known across canada 469
known across europe 878
known active agents 107
known active faults 545
known almost before 175
known almost solely 407
known almost wholly 167
known already before 830
known already through 259
known amongst english 360
known amongst miners 111
known animal groups 171
known animal models 158
known animal rights 154
known animal should 134
known annual events 193
known annual series 97
known another gathering 52
known another person 313
known anyone before 534
known anyone better 68
known anyone called 117
known anyone except 75
known around boston 191
known around campus 658
known around london 134
known around school 448
known artist engaged 84
known artist william 85
known atomic masses 239
known atomic nuclei 131
known atomic number 180
known atomic weight 794
known attack methods 190
known auction houses 161
known authors appears 44
known ballet dancer 150
known before actual 108
known before another 65
known before anyone 309
known before applying 61
known before arriving 70
known before became 51
known before becoming 183
known before christ 172
known before cyprian 45
known before darwin 270
known before deciding 73
known before entering 537
known before euclid 64
known before except 159
known before filled 66
known before galileo 54
known before launch 70
known before modern 77
known before newton 135
known before planning 87
known before planting 109
known before sampling 138
known before seemed 68
known before seized 42
known before starting 701
known before through 73
known before welled 57
known before without 42
known belgian artist 43
known bengali writer 245
known better anyway 70
known better before 138
known better joined 50
known better myself 72
known better thought 40
known better through 145
known binary system 127
known bitter sorrow 40
known boarding school 464
known bodily events 45
known boston artist 111
known boston banker 97
known boston family 368
known boston lawyer 446
known boston surgeon 46
known breeding colony 427
known breeding ground 956
known breeding places 954
known breeding record 83
known breeding station 57
known bright yellow 111
known bronze statue 182
known building blocks 320
known building stones 184
known bunsen burner 56
known carbon dioxide 408
known cardiac disease 2702
known causal agents 158
known causal factor 178
known causes before 198
known causes should 117
known christ before 53
known christ church 42
known church building 106
known church leaders 288
known clearly enough 273
known clearly whether 41
known clotting factor 59
known coffee houses 56
known column vector 125
known common stocks 237
known copies extant 82
known county family 436
known coveting except 49
known custom amongst 44
known danish critic 46
known danish writer 69
known dental surgeon 62
known design matrix 568
known design methods 156
known desire before 143
known device called 45
known dipole moment 205
known direct effect 322
known direct methods 107
known disease agents 69
known disease called 298
known disease caused 194
known disease entity 321
known disease states 386
known disease status 55
known dollar amount 116
known drinking habits 122
known dublin doctor 125
known dublin family 43
known earlier through 45
known eastern belief 146
known edible plants 106
known energy levels 822
known energy output 85
known energy source 209
known england before 49
known english actors 126
known english artist 556
known english authors 470
known english ballad 49
known english comedy 309
known english critic 562
known english doctor 45
known english edition 70
known english expert 134
known english family 614
known english jesuit 269
known english jurist 88
known english lawyer 51
known english makers 46
known english medium 49
known english novels 121
known english phrase 123
known english player 45
known english public 362
known english quaker 132
known english school 132
known english surgeon 181
known english teacher 40
known english thinker 95
known english travel 41
known english version 636
known english writer 2718
known enough already 50
known enough english 131
known enzyme system 106
known escape routes 137
known ethical theories 43
known events should 144
known except through 4566
known excess amount 69
known exciting causes 322
known existing copies 53
known existing genera 45
known existing methods 44
known expert system 324
known extant copies 224
known extant letter 52
known factor loadings 134
known fairly widely 89
known family enmity 55
known family member 358
known family planning 115
known fashion houses 131
known feature writer 130
known female artist 53
known female authors 144
known female figure 57
known female writer 263
known fiction writer 490
known figure amongst 123
known figure around 572
known figure before 68
known figure called 110
known figure through 113
known finite number 169
known formal methods 46
known formal system 57
known former member 131
known fossil fishes 122
known fossil floras 101
known fossil genera 224
known fossil groups 42
known fossil horses 53
known fossil insect 163
known fossil plants 171
known fossil record 2759
known fossil shells 62
known france before 49
known french artist 586
known french authors 298
known french comedy 47
known french critic 474
known french expert 199
known french family 205
known french jurist 43
known french lawyer 96
known french pianist 46
known french savant 130
known french surgeon 93
known french theorist 169
known french version 62
known french writer 2322
known further afield 256
known future amount 130
known future changes 54
known future demand 107
known future events 191
known gambling houses 88
known garden flower 51
known garden plants 498
known garden writer 48
known gathering places 390
known german agents 250
known german artist 234
known german authors 191
known german critic 194
known german doctor 98
known german expert 42
known german family 130
known german jewish 138
known german legend 93
known german surgeon 105
known german version 62
known german writer 1210
known global brands 218
known ground points 63
known harley street 215
known hebrew writer 201
known heroin addict 424
known hidden dangers 51
known hockey player 52
known immune system 52
known impact crater 346
known inborn errors 377
known inducing agents 95
known initial energy 134
known initial series 189
known initial values 623
known initial volume 53
known insect vector 118
known israeli writer 181
known italian artist 165
known italian critic 43
known italian operas 138
known italian writer 376
known jesuit priest 187
known jesuit school 105
known jesuit writer 40
known jewish artist 104
known jewish banker 94
known jewish custom 44
known jewish family 684
known jewish groups 50
known jewish lawyer 139
known jewish leaders 143
known jewish prayer 47
known jewish writer 430
known kidney disease 236
known landed family 45
known larval stages 47
known little before 56
known little beyond 107
known little english 40
known little enough 242
known little except 92
known little figure 98
known little pieces 44
known little through 90
known london artist 40
known london banker 224
known london doctor 118
known london editor 99
known london figure 41
known london lawyer 83
known london street 256
known london surgeon 270
known london weekly 97
known lorenz system 46
known luxury hotels 89
known mainly through 2977
known makeup artist 44
known malady called 94
known managing agency 188
known manner through 48
known marathi writer 169
known marine animal 103
known marine artist 121
known marine faunas 148
known market makers 44
known market prices 155
known market values 159
known martial artist 43
known mental disease 218
known mental states 195
known merely through 120
known metals except 49
known middle eastern 718
known middle english 610
known modern artist 136
known modern authors 193
known modern device 98
known modern english 124
known modern methods 49
known modern version 143
known modern writer 424
known mostly through 402
known muslim divine 46
known muslim leaders 93
known muslim writer 55
known myself before 49
known myself better 177
known native artist 46
known native plants 45
known native speaker 44
known nature writer 225
known neither before 222
known neither sorrow 122
known neither through 68
known normal values 187
known nuclear masses 159
known nuclear powers 177
known nuclear reaction 254
known nuclear weapons 255
known object itself 69
known ocular disease 85
known office building 40
known opinion leaders 277
known ovarian cancer 328
known oxygen partial 67
known oxygen tension 55
known parish priest 116
known partly through 147
known passed through 42
known passes through 200
known passion before 62
known patent lawyer 152
known photon energy 49
known pioneer family 546
known police record 141
known policy toward 49
known polish writer 414
known poster artist 103
known pretty widely 55
known prince albert 47
known proper motions 542
known public building 202
known public domain 82
known public events 141
known public figure 15186
known public houses 54
known public opinion 626
known public person 44
known public places 111
known public policy 165
known public record 110
known public school 3199
known public sector 64
known public speaker 774
known public spirit 556
known public worker 190
known pulpit orator 103
known purity should 62
known quaker family 762
known quaker school 47
known record exists 81
known reducing agents 45
known regions beyond 56
known remedy without 47
known resort hotels 50
known result states 112
known retail chains 49
known retail stores 158
known routes across 123
known routes through 51
known russian agents 50
known russian artist 227
known russian authors 95
known russian critic 157
known russian emigre 48
known russian family 94
known russian jewish 46
known russian writer 1146
known sacred places 82
known safety device 249
known safety hazard 98
known sample values 133
known sample volume 229
known savage tribes 111
known scenic artist 113
known school teacher 79
known scotch family 46
known screen writer 59
known seaside resort 1470
known secret police 43
known sexual stages 163
known sexual symbol 94
known shopping center 127
known shopping street 148
known signal source 49
known simple bodies 82
known simply through 112
known soccer player 294
known solely through 582
known someone before 50
known someone called 56
known something before 143
known something better 250
known sorrow before 76
known sorrow itself 46
known soviet agents 199
known soviet artist 94
known soviet authors 49
known soviet critic 114
known soviet expert 264
known soviet writer 1268
known spawning ground 248
known special pleader 97
known speech before 154
known speech sounds 154
known spiral nebulae 222
known spirit medium 47
known sporting writer 122
known sports figure 1006
known sports writer 388
known stable nuclei 412
known starting points 175
known stopping places 124
known strange errors 119
known strength should 57
known strength through 83
known summer resort 1278
known sunday school 109
known surged through 40
known surrey family 259
known target organs 179
known tavern keeper 50
known taylor series 55
known tennis player 382
known therapy exists 45
known through actions 70
known through actual 223
known through another 560
known through arabic 73
known through christ 458
known through church 91
known through cicero 40
known through common 138
known through copies 755
known through creation 174
known through direct 660
known through divine 314
known through drawings 179
known through earlier 401
known through english 138
known through europe 816
known through extant 43
known through family 87
known through formal 70
known through former 46
known through french 101
known through further 81
known through future 49
known through hearsay 82
known through images 97
known through itself 1834
known through legend 119
known through london 140
known through memory 103
known through modern 125
known through nature 272
known through normal 71
known through prayer 44
known through prints 127
known through proper 54
known through public 238
known through reasoning 127
known through recent 253
known through robert 47
known through senses 51
known through simple 122
known through something 579
known through special 94
known through speech 224
known through thought 367
known through various 1181
known through verbal 133
known through visions 41
known through visual 146
known through william 41
known through wisdom 47
known through writings 50
known thyroid cancer 56
known thyroid disease 164
known thyself aright 235
known touching eulogy 46
known towers backed 88
known training ground 44
known training school 67
known training signal 117
known trance medium 121
known travel agency 181
known travel agents 55
known travel writer 582
known tribal groups 193
known united nations 350
known united states 4964
known unless someone 46
known unless something 41
known vacuum cleaner 49
known values before 89
known vector mesons 107
known vicious circle 488
known virtue appears 104
known virtue through 133
known visual artist 103
known visual binary 152
known visual images 44
known volume before 52
known volume called 142
known volume filled 58
known volume through 197
known watering places 728
known weight should 47
known weight through 160
known whether active 47
known whether another 104
known whether anyone 196
known whether changes 226
known whether direct 42
known whether enough 92
known whether france 43
known whether further 68
known whether higher 53
known whether humans 62
known whether joseph 55
known whether normal 46
known whether philip 61
known whether plants 43
known whether robert 43
known whether stalin 64
known whether william 145
known widely enough 584
known widely through 99
known william morris 223
known winter resort 322
known winter sports 276
known without access 40
known without anyone 55
known without becoming 59
known without christ 50
known without direct 50
known without divine 92
known without further 1564
known without reasoning 132
known without regard 50
known without special 113
known writer before 106
known writer called 55
known writer states 44
known younger brother 181
knows already something 73
knows animal before 63
knows another person 420
knows another thought 42
knows before anyone 48
knows before entering 49
knows better whether 69
knows bodies through 119
knows clearly enough 99
knows eloise hunter 64
knows english better 331
knows english fairly 59
knows english pretty 60
knows enough already 135
knows enough english 634
knows enough french 76
knows enough german 52
knows enough hebrew 97
knows europe better 42
knows except myself 102
knows future events 265
knows hardly anyone 61
knows horses better 91
knows itself better 354
knows itself called 46
knows itself divine 566
knows itself through 1009
knows itself without 136
knows little beyond 563
knows little english 520
knows little enough 663
knows little except 125
knows little indeed 180
knows london better 43
knows master anthony 43
knows mighty little 167
knows neither bounds 85
knows neither crises 49
knows neither desire 52
knows neither english 142
knows neither friend 91
knows neither hatred 40
knows neither hebrew 57
knows neither itself 158
knows neither limits 60
knows neither measure 149
knows neither memory 72
knows neither middle 118
knows neither sorrow 115
knows neither whence 82
knows neither winter 53
knows pretty clearly 52
knows public opinion 50
knows reality through 46
knows robert better 71
knows should govern 168
knows someone called 47
knows something already 80
knows something better 375
knows something nobody 50
knows something should 55
knows something special 92
knows something through 51
knows something useful 67
knows something without 72
knows whether another 132
knows whether anyone 148
knows whether someone 110
knows whether something 134
knows whether without 47
knows whether yonder 134
knows without further 118
knows without reasoning 157