zero almost surely 212
zero atomic number 132
zero baryon number 712
zero before another 43
zero before applying 111
zero before entering 179
zero before impact 87
zero before removing 119
zero before starting 501
zero carbon dioxide 348
zero cardiac output 149
zero column vector 332
zero coupon issues 313
zero coupon yields 510
zero crossing occurs 618
zero crossing points 2020
zero defect policy 57
zero degree kelvin 368
zero dipole moment 4850
zero dollar amount 58
zero energy levels 53
zero energy reactor 458
zero energy states 712
zero excess charge 49
zero excess demand 3977
zero excess profit 247
zero excess return 110
zero excess supply 122
zero factor loadings 268
zero formal charge 293
zero import duties 179
zero income effect 472
zero initial angular 140
zero initial charge 191
zero initial energy 382
zero initial states 58
zero initial stress 337
zero initial values 730
zero lepton number 71
zero normal stress 2945
zero nuclear charge 134
zero nuclear weapons 705
zero offset section 274
zero output levels 145
zero output occurs 42
zero output signal 1480
zero output values 53
zero oxygen levels 45
zero oxygen tension 235
zero photon energy 110
zero pitching moment 477
zero profit margin 225
zero radiate energy 61
zero reject policy 51
zero sample values 95
zero shadow prices 321
zero should always 343
zero should result 41
zero signal output 221
zero signal strength 143
zero singular values 1400
zero starting torque 177
zero starting values 55
zero stored energy 121
zero strain energy 279
zero stress occurs 55
zero thermal energy 230
zero through twenty 128
zero vacuum energy 406
zero values before 139
zero values except 104
zero values should 170
zero winter nights 121
zero without altering 154
zero without freezing 226
zero without further 99
zero without injury 90
zero without nature 47
zero without regard 53
zero without violating 87
zinc alloys should 40
zinc anodes should 92
zinc coated steels 300
zinc copper couple 179
zinc levels should 201
zinc passes through 102
zinc plasma levels 138
zinc plates instead 71
zinc plates should 285
zinc printing plates 79
zinc should always 163
zinc smelting plants 307
zone across africa 45
zone across panama 94
zone almost always 56
zone always exists 64
zone appears around 228
zone around clinic 88
zone around england 66
zone around itself 67
zone around london 46
zone around moscow 51
zone became fitted 157
zone before entering 72
zone center phonon 84
zone created around 66
zone custom custom 158
zone exists around 199
zone formed around 185
zone guides through 246
zone member states 270
zone occurs around 99
zone occurs mainly 47
zone passed through 142
zone passes through 526
zone should always 114
zone should become 68
zone should extend 261
zone should follow 52
zone should remain 102
zone suntan lotions 87
zone system should 73
zone tariff system 69
zone varies greatly 208
zone varies widely 52
zone without further 177
zone without proper 55
zone without regard 70
zone without special 56
zoning appeals boards 100
zoning changes should 49
zoning scheme should 45
zoning system should 41
zoning without planning 97
zoom feature allows 180
zoom lenses should 40
zoom window around 159