far as grace church street 56
far as human nature allows 106
far he shall profit therein 84
far the echoing aisles prolong 57
far we might travel through 73
far we shall follow christ 49
fear of causing further damage 49
fear of error reveals itself 101
fear of peanut butter sticking 150
fear the cruel fiends should 111
for an adult family member 58
for an adult sunday school 45
for an earned income credit 80
for an equal bodily weight 48
for an evening stroll through 49
for an older family member 579
for an older person should 67
for by strong gabled dormer 46
for he could hardly expect 68
for he could neither soften 178
for he could travel better 46
for he never wronged nobody 51
for he would neither submit 44
for if anything should happen 496
for in every temple through 86
for it grows toward supper 46
for it would better become 47
for my father always avoids 84
for my father turned coolly 80
for my lingering another minute 63
for my vision almost wholly 84
for or holding public office 79
for the above reasons refuse 41
for the above stated reasons 220
for the andean common market 113
for the armed forces became 45
for the armed forces should 57
for the armed forces through 47
for the armed forces united 1647
for the armed forces without 60
for the basic building blocks 268
for the bending moment diagram 174
for the brief moment before 94
for the broad circle formed 42
for the child entering school 48
for the china inland mission 399
for the china weekly review 117
for the civil rights agenda 64
for the civil rights forces 91
for the civil rights groups 116
for the civil rights leaders 41
for the civil station itself 47
for the clark county school 78
for the crease merely served 41
for the damon runyon cancer 82
for the driving forces behind 65
for the earned income credit 1906
for the exact amount needed 66
for the extra effort needed 81
for the extra energy needed 52
for the extra session called 45
for the final common pathway 89
for the final output device 56
for the first annual report 51
for the first bridge across 71
for the first church building 194
for the first course should 51
for the first degree course 83
for the first degree murder 222
for the first degree should 72
for the first english edition 343
for the first english version 54
for the first entire course 45
for the first family member 326
for the first flight across 169
for the first french edition 117
for the first german edition 56
for the first manned apollo 240
for the first manned flight 207
for the first manned gemini 45
for the first manned mission 76
for the first minute showed 47
for the first mission station 67
for the first normal stress 93
for the first nuclear reactor 41
for the first person plural 1416
for the first person singular 3504
for the first public flight 101
for the first public school 103
for the first special session 43
for the first station beyond 75
for the first summer session 99
for the first therapy session 70
for the first training session 137
for the first united nations 315
for the first united states 791
for the fixed income groups 45
for the fourth united nations 287
for the given initial values 49
for the grand rapids herald 86
for the harry potter series 47
for the house itself formed 68
for the human immune system 113
for the human rights abuses 379
for the human spirit through 41
for the human visual system 592
for the inner filter effect 100
for the inner organs carrying 48
for the irish potato famine 142
for the joint family system 74
for the junior middle school 156
for the large estate owners 44
for the large muscle groups 53
for the large public sector 44
for the latin square design 276
for the legal tender clause 41
for the light energy inside 134
for the light enters through 62
for the light switch before 53
for the light switch beside 75
for the light switch inside 106
for the light various skimpy 49
for the local police station 122
for the local public school 129
for the local public sector 145
for the local school boards 69
for the local school system 420
for the lower atomic number 59
for the lower energy levels 54
for the lower energy states 53
for the lower income groups 2517
for the lower income levels 98
for the lower middle income 75
for the lower orders without 50
for the lower status groups 51
for the major muscle groups 252
for the major record labels 45
for the missing manual series 58
for the moose county something 117
for the motor cranial nerves 44
for the mount vernon ladies 147
for the naval battle fought 44
for the naval safety center 147
for the newly created county 45
for the newly created object 176
for the newly created office 236
for the newly created states 57
for the newly created united 93
for the newly emerging middle 116
for the newly emerging nations 138
for the newly engaged couple 57
for the newly formed family 41
for the newly formed united 408
for the newly issued shares 123
for the newly wedded couple 182
for the noble ladies bidden 122
for the older family member 64
for the older person should 47
for the older unifying belief 51
for the people seemed likely 47
for the people without regard 40
for the period august through 51
for the period stated therein 138
for the plain carbon steels 175
for the power supply system 47
for the reason already stated 3877
for the reason before stated 472
for the reason stated before 136
for the reason stated earlier 315
for the reason therein stated 214
for the right moment before 234
for the royal assent unless 206
for the royal assent without 207
for the royal ballet school 96
for the royal danish ballet 437
for the royal ontario museum 351
for the rural united states 107
for the senior middle school 132
for the seven golden cities 551
for the short voyage across 41
for the small amount needed 53
for the small family farmer 67
for the small island states 144
for the small peasant farmer 55
for the sober second thought 410
for the social skills training 63
for the social system itself 51
for the solar energy system 71
for the sound becoming higher 47
for the space passed through 99
for the split second before 81
for the state normal school 410
for the state prison system 77
for the state reform school 75
for the state school system 173
for the steep little tunnel 95
for the still greater changes 51
for the stock market bubble 43
for the texas prison system 75
for the times mirror center 87
for the total carbon dioxide 51
for the total dipole moment 55
for the total dollar amount 72
for the total energy output 47
for the total energy stored 98
for the total public sector 70
for the total radiant energy 55
for the total school system 70
for the total strain energy 200
for the total united states 1986
for the trend toward earlier 69
for the trend toward greater 85
for the upper income groups 397
for the upper middle income 42
for the urban united states 189
for the usual openings through 119
for the usual sunday medley 64
for the valid claims existing 42
for the water supply scheme 79
for the water supply sector 104
for the water supply system 381
for the weather changed before 40
for the weird winter nights 60
for the white collar worker 106
for the whole amiable family 43
for the whole animal creation 79
for the whole annual amount 43
for the whole annual output 47
for the whole common market 134
for the whole creation created 43
for the whole damage caused 55
for the whole damage whether 50
for the whole english church 66
for the whole english empire 40
for the whole estate belonging 88
for the whole family before 42
for the whole family should 48
for the whole family system 54
for the whole family through 46
for the whole forest teemed 76
for the whole french public 97
for the whole future course 56
for the whole german empire 163
for the whole public sector 234
for the whole russian empire 139
for the whole school should 53
for the whole school system 406
for the whole soviet system 52
for the whole united nations 72
for the whole united states 9082
for the woman should neither 117
for the women seized sticks 58
for the world beyond school 97
for the world denied christ 41
for the world export market 42
for the worthy fellow smells 50
for us within narrow limits 97
for we could hardly expect 129
fun to enjoy movies filled 92