was an assistant managing editor 50
was an assistant united states 259
was an effective public speaker 249
was an especially serious matter 47
was an exceedingly serious matter 51
was an excellent bridge player 145
was an excellent guitar player 52
was an excellent letter writer 108
was an excellent object lesson 59
was an excellent parish priest 51
was an excellent public speaker 450
was an excellent soccer player 70
was an excellent tennis player 327
was an excellent training ground 456
was an excellent training school 47
was an expression unseen before 191
was an exquisite diamond beetle 57
was an extremely active member 71
was an extremely amiable fellow 76
was an extremely charming sphere 62
was an extremely clever fellow 42
was an extremely common disease 40
was an extremely gifted writer 47
was an extremely modest person 43
was an extremely serious matter 299
was an important breeding ground 43
was an important causal factor 228
was an important enabling factor 47
was an important enough figure 47
was an important export market 57
was an important factor behind 877
was an important factor enabling 77
was an important factor limiting 98
was an important jewish center 52
was an important lesson learned 67
was an important limiting factor 141
was an important market center 41
was an important medium through 45
was an important morale factor 44
was an important motive behind 107
was an important public figure 187
was an important public policy 42
was an important shipping center 90
was an important status symbol 204
was an important supply center 45
was an important training ground 142
was an important unifying factor 70
was an infectious disease caused 63
was an insistent public demand 41
was an outstanding public figure 41
was an outstanding public speaker 58
was an outstanding soccer player 49
was an outstanding tennis player 93
was an unskilled manual worker 62
was an unusually gifted teacher 44
was an unusually severe winter 177
was in existence before entering 90
was no political motive behind 84
was no restraining public opinion 62
was the assistant managing editor 40
was the bloodiest battle fought 63
was the determining factor behind 58
was the liveliest little fellow 384
was the matchless marina doomed 80
was the occasional sudden scurry 45
was the principal agency through 40
was the principal energy source 63
was the principal factor behind 132
was the principal factor limiting 60
was the principal figure behind 63
was the principal limiting factor 67
was the principal medium through 107
was the principal motive behind 136
was the principal person amongst 50
was the principal united states 46
was to determine whether changes 109
was to determine whether england 54
was to eliminate nuclear weapons 47
was to eliminate serious abuses 46
was to influence public opinion 422
was to influence public policy 40
way it shortened itself twenty 94
way of determining whether someone 40
way of determining whether something 46
way of influencing public opinion 216
way of influencing public policy 54
way the political status existing 64
way to determine whether someone 135
way to determine whether something 107
way to encounter another animal 45
way to establish common ground 97
way to influence public opinion 209
way to influence public policy 121
way to liverpool street station 110
wear an everlasting barren simper 151
who is doubtless already anxious 97
why no gentleman should mention 51
why the honorable member should 56
why the provinces should suffer 49
why the terrified shriek coward 52
with an accessory fleshy bundle 73
with an activated carbon filter 63
with an additional safety factor 63
with an aggregate annual income 43
with an aggregate annual output 61
with an alcoholic family member 105
with an arbitrary finite number 94
with an automatic record changer 108
with an automatic safety device 62
with an automatic sample changer 267
with an automatic watering system 67
with an effective atomic number 94
with an effective nuclear charge 150
with an elaborate floral design 62
with an emergency lighting system 49
with an estimated annual income 155
with an estimated annual output 183
with an estimated twenty million 47
with an exceedingly pretty figure 42
with an excellent safety record 319
with an excellent school record 56
with an excellent school system 60
with an excitation energy higher 72
with an expansive fiscal policy 62
with an expensive toilet mirror 42
with an expression vector encoding 224
with an increasingly larger number 74
with an industrial vacuum cleaner 143
with an infectious disease expert 183
with an infectious disease should 83
with an inherited disease called 87
with an optically active liquid 42
with an optically active reagent 105
with an outstanding safety record 60
with an uncertain future before 56
with an unmarried younger sister 85
with an unusually severe attack 78
with my statement without stopping 46
with no permanent dipole moment 182
with no reference beyond itself 62
with the abdominal cavity through 82
with the accessory meningeal artery 43
with the advantage already gained 164
with the assistant united states 96
with the associated credit bureaus 63
with the associated norman cities 66
with the australian atomic energy 50
with the australian inland mission 52
with the brightest english belles 67
with the communist secret police 138
with the conclusion already reached 115
with the conclusion reached earlier 125
with the conclusion reached herein 98
with the conditions existing before 48
with the continual violent thrashing 54
with the copyright office before 247
with the depreciating second person 63
with the different points marked 84
with the difficult issues raised 55
with the dissolved carbon dioxide 100
with the effective nuclear charge 98
with the emergency bylaws remain 67
with the exceptions already stated 387
with the exceptions before stated 52
with the incarnate divine desire 70
with the incurable wounds thereby 98
with the intervening spaces filled 212
with the kindliest feelings toward 60
with the knowledge already gained 60
with the knowledge gained through 262
with the licentious rabble around 80
with the microsoft office system 46
with the mightiest prince abroad 72
with the milwaukee public museum 54
with the molecular dipole moment 181
with the moonlight streaming through 223
with the necessary building blocks 59
with the parameter values listed 55
with the peritoneal cavity through 207
with the permanent dipole moment 75
with the phenomena already existing 63
with the political public sphere 50
with the political system itself 217
with the political system through 49
with the potentate already spoken 72
with the practical skills needed 54
with the principal allied powers 98
with the principal debtor without 74
with the principle already stated 74
with the procedure relating thereto 46
with the provincial troops raised 41
with the provisions relating thereto 62
with the psychical entity behind 46
with the pulmonary venous return 55
with the remainder fairly evenly 45
with the requisite profit motive 69
with the residuary powers vested 238
with the secondary school system 90
with the statement already quoted 92
with the strategic nuclear forces 47
with the strategic rocket forces 76
with the surrounding aqueous medium 173
with the surrounding medium through 44
with the surrounding native tribes 67
with the surrounding normal tissue 137
with the technical skills needed 198
with the telephone system should 46
with the theological issues raised 46
with the theoretical issues raised 78
with the transition dipole moment 153
with the vertebral venous plexus 224
with the vertebral venous system 46
with the volunteer system already 52