tax on corporate source income 100
than in surrounding normal tissue 52
than the available thermal energy 49
than the completed bronze statue 40
than the conclusion reached through 45
than the political system itself 65
than the surrounding normal tissue 211
than the surrounding thyroid tissue 81
that an additional bounty should 43
that an additional clause should 41
that an assistant united states 52
that an effectual course should 48
that an electoral system should 81
that an emergency special session 71
that an enactment passed through 43
that an equestrian statue should 48
that an important factor behind 167
that an important family matter 42
that an important public policy 53
that an increasingly larger number 81
that an insurance policy covering 45
that an insurance policy should 49
that an intensive effort should 43
that an objective reality exists 231
that as countries become richer 148
that he sometimes almost wanted 49
that in determining whether cooper 40
that in determining whether offers 106
that is altogether another matter 115
that is available without charge 72
that is conceived through itself 40
that is conceived without regard 57
that is contained therein unless 49
that is worthwhile without fighting 71
that it collected stores instead 43
that it concerned itself solely 40
that it contained another inmate 65
that it contained enough secret 43
that it expresses itself through 60
that it generally passes through 131
that it manifests itself through 68
that it permitted public school 91
that it possessed nuclear weapons 156
that it possesses nuclear weapons 171
that it signifies little whether 69
that it transmits emotion without 124
that king ferdinand should employ 55
that my collection should always 111
that no englishman should meddle 61
that no gentleman should endure 80
that no prejudice should accrue 41
that no reasonable effort should 41
that no reasonable person should 104
that of criticizing mozart fairly 42
that of influencing public opinion 96
that the activation energy needed 45
that the activation energy should 90
that the activation energy varies 64
that the additional demand created 40
that the additional energy needed 40
that the additional forces should 53
that the admiralty should become 48
that the advertising agency should 41
that the aforesaid warren hastings 55
that the aggregate annual amount 53
that the aggregate excess demand 92
that the aggrieved person should 57
that the agreement should remain 101
that the americans rarely lavish 124
that the americans should occupy 54
that the americans should remain 48
that the anonymous letter failed 131
that the appellate courts should 64
that the applicant should submit 96
that the appointed agency should 52
that the architect should always 45
that the architect should design 66
that the assignees thereby became 111
that the assistant united states 127
that the associates should secure 83
that the association itself through 58
that the association should become 58
that the authorized english version 64
that the automatic fellow always 52
that the biological oxygen demand 47
that the boundless public domain 55
that the burgundian leaders readily 88
that the california courts lacked 77
that the california courts upheld 198
that the california public school 46
that the candidate should remain 117
that the capacitor stores energy 44
that the christians should retain 51
that the churchill clique stands 49
that the circulating medium should 112
that the classical spirit should 62
that the classroom teacher should 285
that the collection should remain 75
that the colonists learned little 70
that the commission itself should 107
that the commission should become 59
that the commission should decide 71
that the commission should follow 62
that the commission should report 159
that the commission should retain 43
that the commission should review 61
that the commission should submit 98
that the committee itself should 87
that the committee should accept 47
that the committee should decide 118
that the committee should report 315
that the committee system should 44
that the communist regime serves 67
that the community itself should 145
that the community should assume 51
that the community should become 114
that the community should remain 43
that the complaint should allege 60
that the conditions stated therein 48
that the constable should remain 79
that the contracting powers agreed 61
that the contracting powers should 200
that the contracting states should 113
that the convention itself should 72
that the convention should remain 133
that the convention should remove 59
that the convicted person should 68
that the copyright office itself 67
that the copyright office should 52
that the corporate entity should 217
that the corporate sector should 52
that the customary warnings failed 55
that the defendant lacked standing 70
that the defendant pleaded guilty 85
that the defendant should accept 65
that the defendant should answer 142
that the defendant should employ 92
that the defendant should remain 43
that the defendant should retain 165
that the defendant should suffer 61
that the defendant william stiles 48
that the determining factor should 67
that the developed hybrid should 58
that the developed nations should 122
that the different cities should 58
that the different groups should 42
that the different income groups 41
that the different nations should 67
that the different stages through 42
that the different states should 74
that the digestive organs should 70
that the disparate impact sought 53
that the dispersed forces should 161
that the edinburgh review should 84
that the effective atomic number 77
that the effective dipole moment 71
that the effective normal stress 59
that the effective nuclear charge 233
that the electoral prince should 210
that the electoral system itself 51
that the electoral system should 175
that the episcopal church should 142
that the episcopal clergy should 52
that the equitable relief sought 46
that the equitable remedy sought 50
that the executive branch should 450
that the executive powers should 49
that the expedition passed through 87
that the expedition should return 129
that the federation should become 50
that the geological survey should 47
that the hanoverian troops should 100
that the honorable member should 542
that the household troops should 105
that the industrial sector should 51
that the industrial system should 65
that the industrial worker should 60
that the injunction should remain 45
that the institute should become 45
that the insurance policy covers 180
that the insurance policy issued 44
that the intruders should depart 78
that the kidnapped chiefs should 42
that the knowledge gained thereby 137
that the knowledge gained through 348
that the masculine energy should 99
that the miserable corpse before 43
that the molecular dipole moment 56
that the mortality became alarming 191
that the mortgagor should remain 58
that the mortgagor should retain 85
that the mountains should remain 57
that the murderers should escape 52
that the neapolitan troops should 49
that the necessary changes should 58
that the necessary powers should 49
that the neglected master should 44
that the offenders should merely 99
that the offensive matter should 257
that the parliament should bestow 69
that the parliament should neither 97
that the parliament should resume 62
that the parliament should retain 64
that the permanent dipole moment 81
that the petrified marine bodies 52
that the plaintiff lacked standing 506
that the plaintiff should accept 132
that the plaintiff should allege 73
that the plaintiff should become 49
that the plaintiff should employ 50
that the plaintiff should obtain 125
that the plaintiff should retain 44
that the plaintiff should suffer 48
that the political leaders should 75
that the political public sphere 54
that the political system created 41
that the political system itself 645
that the political system needed 61
that the political system offers 44
that the political system should 343
that the population should remain 62
that the president called before 43
that the president should accept 57
that the president should always 211
that the president should answer 48
that the president should assume 49
that the president should attend 62
that the president should become 111
that the president should choose 55
that the president should decide 85
that the president should desire 43
that the president should direct 45
that the president should inform 51
that the president should invite 56
that the president should openly 50
that the president should remain 84
that the president should report 51
that the president should resign 212
that the president should return 95
that the president should select 68
that the president should submit 93
that the prevalent theology should 65
that the primitive groove arises 77
that the principal actors should 43
that the principal actors therein 45
that the principal allied powers 145
that the principal attack should 58
that the principal debtor should 73
that the principal effort should 56
that the principal factor behind 45
that the principal factor limiting 40
that the principal figure should 113
that the principal limiting factor 43
that the principal motive behind 104
that the principal should remain 47
that the principle became firmly 45
that the prismatic colors gleamed 79
that the prisoners should become 51
that the proceedings always opened 45
that the procession should return 68
that the profession itself should 51
that the projected colony should 74
that the protection should extend 49
that the provinces should retain 40
that the pulmonary artery arises 64
that the purchaser should accept 43
that the purchaser should assume 55
that the quantized energy levels 56
that the rebellious states should 61
that the requisite amount should 75
that the researcher should always 46
that the residuary estate should 75
that the residuary powers should 205
that the resultant passes through 88
that the rotational energy levels 137
that the scheduled castes should 160
that the secondary modern school 113
that the secondary school should 489
that the secondary school system 117
that the secondary school teacher 118
that the signatory powers should 134
that the sovereign powers vested 313
that the sovereign should always 43
that the strategic nuclear forces 92
that the strategic rocket forces 93
that the structure itself should 49
that the structure repeats itself 54
that the subsidiary ledger agrees 81
that the substance causes cancer 54
that the succession should remain 54
that the telephone system should 84
that the territory around active 40
that the territory should become 144
that the territory should remain 85
that the theological system existing 44
that the transition dipole moment 183
that the transport system should 55
that the transvaal should remain 82
that the vertebral column became 49
that the victorious powers should 92
that the victorious troops should 50
that the voluntary sector should 69
that the voluntary system should 50
that the witnesses should attest 98
that un observers should patrol 45
that we sometimes wonder whether 64
them at strategic points around 53
them by discharging cannon without 82
them in controlling neither palate 51
them in different places around 50
them the prodigious annual amount 43
them to cultivate energy without 40
them to discharge various duties 62
them to influence public opinion 161
them to influence public policy 57
them to unmarried minors through 88
then an assistant managing editor 58
then it signifies little whether 51
then my everlasting tremor passed 92
then the conclusion forces itself 47
then the procession passed through 41
things in themselves without regard 57
this is abandoned without effect 44
try to establish common ground 77
try to influence another person 62
try to influence policy makers 44
try to influence public opinion 966
try to influence public policy 1309
try to pleasantly remind adults 155