oaks in the eastern united 106
oaks in the united states 198
oaks of the united states 59
oaths in the united states 152
oaths of the judges should 91
oaths to the united states 50
oats in the united states 724
obey is the proper office 58
ocean by the united states 42
ocean in the united states 194
ocean to the united states 962
odds of the united states 136
offs in the public sector 70
offs in the united states 121
oils in the united states 1110
oils of the united states 347
once as it passes through 56
once at the church supper 44
once at the police station 96
once by the united states 483
once in my entire career 50
once in the battle fought 76
once in the english version 46
once in the entire corpus 62
once in the entire course 42
once in the parish church 51
once in the public domain 357
once in the united states 4712
once it is clearly stated 45
once of the united states 96
once on an urgent matter 45
once to my eldest brother 40
once to the english consul 48
once to the nearest police 117
once to the parade ground 54
once to the police office 55
once to the police station 240
once to the source whence 51
once to the united nations 54
once to the united states 1870
ones as the united states 40
ones in the common fields 51
ones in the former soviet 40
ones in the garden before 53
ones in the larger cities 50
ones in the public sector 92
ones in the second column 91
ones in the united states 5018
ones of the united states 421
ones on the second ballot 88
ones on the seventh pillar 68
ones to the united states 58
ongoing in the united states 814
onion in the melted butter 50
only as an active member 42
only as an energy source 163
only as an honest luxury 47
only as an object lesson 130
only as he thought proper 128
only as is proved before 41
only as it offers itself 85
only as it passes through 83
only as it reveals itself 46
only as the active allies 49
only as the direct result 177
only as the insane suffer 73
only as the little shabby 44
only as the medium through 104
only as the remote object 40
only as the united states 225
only at my shadow before 60
only at the actual moment 145
only at the annual meetings 53
only at the border itself 57
only at the deeper levels 56
only at the earlier stages 56
only at the earnest desire 44
only at the higher levels 1163
only at the higher stages 101
only at the initial moment 103
only at the initial stages 326
only at the latest stages 47
only at the latter stages 40
only at the lowest levels 838
only at the moment before 106
only at the police station 69
only at the proper moment 100
only at the sample points 55
only at the sampling points 51
only at the second ballot 62
only at the second remove 78
only at the second session 50
only at the united nations 187
only at the united states 230
only be the better pleased 92
only be the medium through 68
only be the united states 236
only be to foster thereby 45
only by an active effort 93
only by an actual effort 49
only by an earnest desire 43
only by an heroic effort 43
only by an obtuse languor 70
only by the actual amount 94
only by the actual fighting 45
only by the actual number 42
only by the barest margin 85
only by the casual chirping 232
only by the common desire 46
only by the common factor 310
only by the common vulgar 218
only by the cotton famine 103
only by the direct effect 60
only by the dismal hollow 46
only by the earnest desire 42
only by the english common 45
only by the finite sphere 65
only by the furious crowds 43
only by the gentle murmur 46
only by the greater extent 55
only by the greater number 116
only by the initial letter 69
only by the latter motive 75
only by the market itself 43
only by the member states 177
only by the merest chance 2754
only by the mighty shoves 198
only by the mutual pledge 41
only by the narrow isthmus 210
only by the narrow margin 383
only by the narrow strait 215
only by the narrow valley 189
only by the narrow waters 57
only by the object itself 68
only by the parish priest 43
only by the profit motive 397
only by the prompt energy 40
only by the public opinion 68
only by the public school 45
only by the public sector 166
only by the purest chance 53
only by the rarest chance 108
only by the special nature 145
only by the united effort 175
only by the united forces 50
only by the united masses 54
only by the united nations 413
only by the united states 11669
only by the united strength 82
only by the utmost effort 156
only do the united states 137
only he is ingenious enough 47
only if he should happen 50
only if it adapts itself 43
only if it already exists 75
only if it appears beyond 64
only if it appears likely 51
only if it clearly appears 55
only if it occurs before 74
only if it passes through 119
only if the authors defray 181
only if the bodily injury 148
only if the carbon dioxide 53
only if the carrying amount 76
only if the client agrees 50
only if the common parent 72
only if the debtor agrees 89
only if the dipole moment 68
only if the direct object 56
only if the entire system 132
only if the hessian matrix 56
only if the income effect 213
only if the injury occurs 55
only if the latter agreed 40
only if the learner already 58
only if the member states 212
only if the peasant masses 103
only if the photon energy 96
only if the public safety 45
only if the public sector 106
only if the system itself 72
only if the united nations 445
only if the united states 9277
only if we accept something 44
only if we already assume 42
only if we remain united 45
only in an acidic medium 43
only in an aqueous medium 48
only in an arabic version 122
only in an insane asylum 44
only in the active window 65
only in the actual course 83
only in the actual moment 55
only in the amount needed 119
only in the annual report 100
only in the apical portion 50
only in the arabic version 59
only in the arctic regions 252
only in the ardent manner 97
only in the baltic states 104
only in the better houses 49
only in the bigger cities 46
only in the border regions 70
only in the border states 161
only in the building trades 84
only in the center portion 40
only in the church fathers 41
only in the church itself 57
only in the colder regions 98
only in the colder waters 53
only in the common course 146
only in the common manner 74
only in the common school 40
only in the common speech 57
only in the county courts 42
only in the decade before 96
only in the deeper layers 194
only in the deeper waters 85
only in the distal portion 89
only in the distal tubule 111
only in the divine nature 274
only in the earlier periods 109
only in the earlier phases 56
only in the earlier stages 1219
only in the eastern empire 43
only in the eastern portion 150
only in the eastern regions 81
only in the eastern section 47
only in the eastern sector 49
only in the eastern states 378
only in the eastern united 265
only in the elysian fields 96
only in the energy sector 76
only in the english church 81
only in the english edition 97
only in the english version 244
only in the entire series 89
only in the export market 56
only in the export sector 63
only in the fairly recent 79
only in the family circle 429
only in the fields already 42
only in the fleeting earlier 205
only in the formal sector 206
only in the former soviet 538
only in the fossil record 240
only in the french annals 58
only in the french edition 153
only in the french version 245
only in the further course 166
only in the future through 51
only in the german edition 111
only in the german empire 40
only in the german version 94
only in the greater amount 70
only in the greater degree 73
only in the greater extent 109
only in the greater number 232
only in the hebrew version 60
only in the higher courts 65
only in the higher degree 40
only in the higher grades 240
only in the higher income 96
only in the higher levels 92
only in the higher orders 57
only in the higher plants 82
only in the higher reaches 219
only in the higher regions 187
only in the higher stages 169
only in the higher strata 41
only in the hinted manner 66
only in the infant school 42
only in the initial phases 222
only in the initial planning 40
only in the initial portion 42
only in the initial stages 2424
only in the intact animal 110
only in the italian version 42
only in the jordan valley 51
only in the larger cities 3583
only in the larger houses 48
only in the larger number 105
only in the larger places 50
only in the larger plants 43
only in the larger school 43
only in the larger trunks 48
only in the larval stages 112
only in the latest stages 202
only in the latest strata 42
only in the latest version 46
only in the latter phases 45
only in the latter portion 98
only in the latter section 41
only in the latter stages 630
only in the lesser degree 47
only in the london edition 66
only in the lowest degree 156
only in the lowest grades 129
only in the lowest income 48
only in the lowest layers 76
only in the lowest levels 87
only in the lowest strata 53
only in the manner already 64
only in the manner herein 44
only in the manner therein 40
only in the market places 49
only in the matrix clause 63
only in the matter itself 42
only in the member states 47
only in the metric system 47
only in the middle bronze 47
only in the middle english 98
only in the middle ground 66
only in the middle portion 171
only in the middle section 189
only in the mirror behind 65
only in the modern sector 88
only in the mojave desert 47
only in the moment before 66
only in the narrow circle 213
only in the narrow sphere 54
only in the narrow valley 41
only in the normal course 108
only in the nuclear family 47
only in the object itself 62
only in the object sought 46
only in the obvious places 66
only in the parish church 112
only in the planning stages 910
only in the plural number 213
only in the police station 62
only in the proper manner 58
only in the proper seasons 46
only in the public domain 162
only in the public market 44
only in the public opinion 66
only in the public school 136
only in the public sector 2585
only in the public sphere 509
only in the public square 62
only in the recent decade 43
only in the remote future 1108
only in the remote regions 67
only in the result reached 58
only in the sacred writings 113
only in the school itself 52
only in the school system 87
only in the second clause 77
only in the second decade 606
only in the second degree 1232
only in the second edition 1190
only in the second figure 49
only in the second person 450
only in the second quarto 92
only in the second remove 187
only in the second section 160
only in the second series 66
only in the second session 68
only in the second stanza 97
only in the second temple 89
only in the second version 153
only in the second volume 225
only in the seventh degree 45
only in the sexual organs 46
only in the sexual sphere 136
only in the sierra nevada 149
only in the singular number 306
only in the spatial domain 41
only in the states listed 57
only in the strict letter 58
only in the sunday school 48
only in the united nations 354
only in the united states 88171
only in the visual cortex 96
only in the visual system 45
only in the warmer regions 120
only in the warmer waters 45
only in the waters around 97
only is it always better 41
only is it unclear whether 65
only is the larynx curious 73
only is the proper object 47
only is the proper policy 92
only is the united nations 48
only is the united states 1465
only it is without ethical 87
only of an availing nature 72
only of the alpine nations 110
only of the church belongs 80
only of the direct effect 54
only of the divine nature 106
only of the entire series 48
only of the greater number 56
only of the higher orders 294
only of the larger cities 58
only of the london letter 92
only of the matter itself 42
only of the mental powers 105
only of the narrow margin 71
only of the nuclear family 59
only of the object before 42
only of the object itself 40
only of the porous medium 139
only of the public safety 86
only of the public sector 76
only of the russian church 49
only of the second degree 93
only of the second edition 41
only of the second nobler 57
only of the seneca mission 42
only of the system itself 64
only of the torrid regions 50
only of the united nations 473
only of the united states 7758
only of the vessel needed 46
only on the actual amount 179
only on the atomic number 136
only on the bodily organs 50
only on the cinema screen 68
only on the common ground 120
only on the direct effect 68
only on the direct orders 59
only on the eastern border 50
only on the eastern slopes 79
only on the former ground 46
only on the ground already 48
only on the higher ground 63
only on the higher levels 150
only on the higher slopes 52
only on the initial values 119
only on the lesser charge 50
only on the lowest levels 67
only on the master server 42
only on the member states 131
only on the narrow ground 41
only on the nations engaged 53
only on the nuclear charge 51
only on the object itself 68
only on the parade ground 113
only on the public sector 65
only on the return voyage 48
only on the second ballot 98
only on the second sunday 64
only on the signal energy 60
only on the silver screen 82
only on the system itself 45
only on the united states 1096
only on the upward stroke 73
only thing the united states 366
only to be clearly stated 201
only to be denied access 98
only to be driven ashore 49
only to be fairly stated 101
only to be gained through 243
only to be killed before 91
only to be kindly looked 42
only to be learned through 75
only to be passed through 74
only to be placed before 52
only to be reached through 1212
only to be stated clearly 102
only to be turned around 181
only to be turned upside 132
only to my jewish nature 109
only to the active window 45
only to the actual amount 63
only to the actual number 45
only to the actual prices 40
only to the building itself 64
only to the causes already 67
only to the changes caused 62
only to the church itself 117
only to the coasting trader 80
only to the common parent 93
only to the degree needed 117
only to the direct effect 78
only to the direct impact 42
only to the divine nature 678
only to the earlier stages 92
only to the eastern empire 53
only to the english church 43
only to the english version 47
only to the entire figure 68
only to the extent agreed 105
only to the extent already 43
only to the extent caused 224
only to the extent clearly 76
only to the extent deemed 323
only to the extent herein 94
only to the extent income 42
only to the extent needed 2268
only to the extent stated 230
only to the extent therein 77
only to the family circle 50
only to the formal sector 40
only to the former soviet 111
only to the greater number 70
only to the guilty person 88
only to the higher castes 79
only to the higher grades 78
only to the higher income 101
only to the higher levels 62
only to the higher orders 79
only to the initial stages 365
only to the larger cities 93
only to the latter portion 40
only to the lowest bidder 69
only to the lowest common 68
only to the lowest degree 107
only to the lowest income 52
only to the lowest levels 63
only to the member states 303
only to the middle ground 44
only to the middle portion 50
only to the narrow circle 217
only to the nearest degree 138
only to the nearest dollar 149
only to the nearest million 101
only to the nearest minute 553
only to the nearest second 220
only to the nuclear family 415
only to the object itself 127
only to the parish priest 50
only to the person therein 47
only to the public domain 67
only to the public opinion 72
only to the public places 46
only to the public school 183
only to the public sector 1058
only to the public sphere 82
only to the quoted matter 71
only to the return voyage 41
only to the school system 55
only to the second degree 265
only to the second edition 108
only to the second lumbar 75
only to the second person 50
only to the slight extent 125
only to the system itself 151
only to the thirsty plants 48
only to the united nations 846
only to the united states 32667
only to the utmost bounds 49
onus on the united states 168
oped in the united states 118
open as the united states 112
open at the winter garden 42
open by the united states 143
open in the united states 1977
open it by choosing window 552
open it by double clicking 309
open on the ground beside 92
open on the higher ground 42
open on the second monday 47
open to an obvious retort 71
open to be filled through 168
open to the allied armies 41
open to the curious minded 46
open to the earnest seeker 120
open to the entire campus 353
open to the entire public 216
open to the entire school 102
open to the french armies 100
open to the french troops 44
open to the gentle breeze 49
open to the global market 84
open to the golden shafts 97
open to the greater number 45
open to the member states 286
open to the obvious charge 79
open to the obvious retort 109
open to the prince before 43
open to the public almost 40
open to the public around 85
open to the public before 494
open to the public choice 53
open to the public domain 83
open to the public except 1459
open to the public friday 42
open to the public gratis 116
open to the public monday 1539
open to the public sector 65
open to the public should 157
open to the public street 131
open to the public sunday 104
open to the public through 347
open to the public twenty 114
open to the public unless 1313
open to the public whether 44
open to the public without 4209
open to the second button 63
open to the serious charge 175
open to the solemn fields 58
open to the sphere around 45
open to the sports section 171
open to the summer breeze 85
open to the united nations 393
open to the united states 8880
open to the visiting public 141
open up the forest canopy 41
open up the public domain 56
open up the public sector 53
open up the school system 40
open up the united states 106
open up to another person 192
ores in the united states 2730
ores of the common metals 58
ores of the eastern border 46
ores of the united states 1194
ores of the useful metals 171
ores of the various metals 67
ores to the united states 203
other as the divine spirit 67
other as the united states 70
other at the united nations 71
other by the female parent 46
other by the united states 1148
other in an estate called 49
other in an ingenious dialect 60
other in an italian colony 124
other in an upward spiral 176
other in the berlin museum 85
other in the boston museum 41
other in the common manner 87
other in the earlier stages 59
other in the garden behind 55
other in the initial stages 56
other in the manner already 69
other in the middle portion 42
other in the modern spirit 57
other in the narrow street 61
other in the normal course 142
other in the plural number 50
other in the public places 44
other in the public sector 54
other in the public sphere 109
other in the public square 95
other in the sacred volume 45
other in the second degree 112
other in the second person 235
other in the street without 121
other in the thickly peopled 76
other in the united nations 227
other in the united states 9980
other in the various stages 48
other is the silent section 55
other is the united states 383
other of the allied nations 47
other of the allied powers 73
other of the animal fluids 45
other of the bearers always 81
other of the bodily organs 143
other of the building trades 52
other of the causes already 65
other of the common causes 51
other of the cranial nerves 134
other of the eastern states 49
other of the founding fathers 49
other of the german states 131
other of the grecian states 208
other of the indians should 49
other of the italian cities 83
other of the italian states 153
other of the knotty points 82
other of the larger cities 222
other of the larger groups 54
other of the larger joints 44
other of the larger states 46
other of the little darlings 55
other of the london weekly 56
other of the member states 193
other of the methods already 281
other of the middle states 57
other of the native tribes 75
other of the opposing forces 103
other of the organs proper 66
other of the parent stocks 126
other of the rarest italian 91
other of the reasons already 50
other of the rivers emptying 76
other of the sacred writings 104
other of the special senses 84
other of the twenty issues 95
other of the united nations 796
other of the united states 5585
other of the various causes 46
other of the various groups 74
other of the various methods 123
other of the various stages 46
other of the various theories 52
other of the watching damsel 76
other on the common ground 96
other on the ground beside 52
other on the little stairs 46
other on the second ballot 135
other on the street corner 97
other on the street without 198
other on the united states 59
other to the common strength 75
other to the county prison 73
other to the little cliffs 45
other to the narrow spirit 62
other to the norman prince 40
other to the parish church 42
other to the proper height 55
other to the united states 773
ours in the mobile battle 48
ours in the united states 1592
outs in the united states 130
outs of the latest version 40
oven in the united states 78
over as he should desire 104
over at the bloody crossing 42
over at the church yonder 96
over at the livery stable 184
over at the middle school 59
over at the police station 428
over at the shopping center 46
over at the united nations 106
over by the deputy speaker 44
over by the london county 369
over by the london school 85
over by the oldest member 82
over by the parish priest 133
over by the prince regent 51
over by the public school 166
over by the public sector 561
over by the radius vector 1211
over by the school system 50
over by the secret police 56
over by the tennis courts 79
over by the united nations 1280
over by the united states 9166
over in the corner behind 144
over in the corner painting 99
over in the normal course 218
over in the public sector 142
over in the riotous excess 100
over in the united states 8027
over in the valley beyond 52
over it is kindly lifted 40
over me in candid wonder 96
over of the broken pieces 188
over of the united states 445
over on the parade ground 40
over on the record player 45
over on the united states 50
over the king became greater 68
over the sea toward sicily 48
over to an island called 95
over to the allied forces 53
over to the allied powers 336
over to the atomic energy 101
over to the barred window 255
over to the border patrol 308
over to the broken window 215
over to the chosen school 89
over to the church courts 97
over to the church office 42
over to the clothes closet 116
over to the common hangman 45
over to the corner window 107
over to the county courts 56
over to the dormer window 115
over to the dressing station 45
over to the english church 178
over to the english without 40
over to the fiction section 42
over to the former owners 123
over to the french consul 350
over to the french mission 90
over to the french police 450
over to the french surgeon 41
over to the french troops 65
over to the french window 244
over to the garden across 107
over to the german police 528
over to the german troops 53
over to the herald office 107
over to the incoming tenant 49
over to the island before 159
over to the island without 122
over to the italian police 67
over to the jewish agency 254
over to the jewish leaders 42
over to the larger island 50
over to the little church 172
over to the little island 554
over to the little rustic 56
over to the little window 326
over to the little wooden 46
over to the livery stable 719
over to the london county 184
over to the lovely keeper 52
over to the managing editor 101
over to the metric system 1070
over to the middle school 133
over to the narrow window 169
over to the nearest consul 443
over to the nearest island 102
over to the nearest police 342
over to the nearest window 654
over to the office building 130
over to the office window 198
over to the parade ground 129
over to the parish church 175
over to the parish priest 135
over to the parlor window 102
over to the patent office 101
over to the peabody museum 45
over to the picnic tables 170
over to the police before 69
over to the police instead 90
over to the police station 3221
over to the police unless 108
over to the police without 348
over to the proper person 335
over to the public domain 185
over to the public record 137
over to the public school 788
over to the public sector 486
over to the public without 44
over to the record player 1192
over to the reigning family 74
over to the romans before 184
over to the russian police 119
over to the school building 187
over to the school system 112
over to the school without 103
over to the second column 244
over to the second session 268
over to the secret police 579
over to the senate office 126
over to the shopping center 409
over to the sister island 42
over to the soviet forces 49
over to the soviet system 525
over to the special branch 68
over to the sports section 46
over to the states through 446
over to the states without 40
over to the station master 50
over to the subway station 55
over to the sunday school 105
over to the tennis courts 231
over to the ticket office 205
over to the ticket window 414
over to the united nations 8738
over to the united states 33631
over to the various states 51
over to the watering trough 64
over to the window before 109
over to the window behind 323
over to the window beside 246
over to the window nearest 88
over to the window through 101
over to the window without 130
ovum of the mammal tribes 48
owed by the debtor before 427
owed by the public sector 192
owed by the united states 1590
owed in the united states 125
owed to the former client 105
owed to the former soviet 181
owed to the geneva church 43
owed to the united nations 286
owed to the united states 8688
owes it to public opinion 123
owes to the english common 46
owes to the united states 287
owls in the united states 182
owls of the united states 259
owns in the united states 74
oxen in the united states 149