habeas corpus actions . 514
habeas corpus appeals . 333
habeas corpus claims . 134
habeas corpus denied . 276
habeas corpus issued . 115
habeas corpus matter . 44
habeas corpus reform . 131
habeas corpus relief . 3816
habeas corpus remedy . 151
habeas corpus review . 1588
habeas corpus rights . 220
habit already formed . 60
habit assert itself . 65
habits already formed . 338
hallow deceit itself . 59
haloes around lights . 329
halos around lights . 1757
handed monkey wrench . 621
handle future crises . 55
handle larger groups . 50
handle nuclear weapons . 55
handle pointing upward . 89
handle stress better . 467
handle without damage . 82
handle without gloves . 198
handling appears feeble . 50
handling bodily fluids . 41
handling ethical issues . 42
handling nuclear weapons . 52
handling public opinion . 44
handling system design . 185
handling without damage . 198
handling without injury . 60
hands almost touching . 113
hands became clammy . 130
hands before dinner . 747
hands before entering . 76
hands before knives . 82
hands before prayer . 77
hands before starting . 121
hands before supper . 128
hands meekly folded . 91
hands pointing upward . 40
hands should perish . 44
hands through impact . 70
hands turned clammy . 89
hands turned upward . 42
hands without fighting . 46
hands without injury . 41
handy little volume . 350
hanged before dinner . 64
happen should happen . 59
happen through chance . 70
happen without effort . 204
happen without planning . 69
happy autumn fields . 83
happy beyond belief . 185
happy beyond measure . 337
happy enough anyway . 64
happy family circle . 482
happy family dinner . 48
happy family gathering . 135
happy family indeed . 50
happy family reunion . 363
happy fields bestow ? 46
happy little animal . 69
happy little family . 566
happy little fellow . 100
happy middle ground . 144
happy nuclear family . 55
happy thought occurs . 43
happy united family . 45
happy without quebec . 47
happy without riches . 116
happy without virtue . 120
harass another person . 163
harden before winter . 105
hardly answer calmly . 121
hardly anyone around . 202
hardly anyone noticing . 42
hardly escape notice . 405
hardly forbear laughing . 59
hardly obtain belief . 439
hardly remain silent . 41
hardly remain standing . 47
hardly seemed enough . 118
hardly seemed likely . 444
hardly serious enough . 125
hardly spoken before . 40
hardy border plants . 57
hardy desert plants . 44
hardy flower border . 46
hardy garden plants . 80
harmed another person . 102
harming another person . 446
harms another person . 283
harret seiner stunde ! 61
harsh public policy . 60
harsh russian winter . 185
harsh toilet training . 86
harsh winter storms . 50
hasty glance around . 84
hated anyone before . 194
hated boarding school . 131
hated secret police . 196
hated united states . 69
hated without profit ? 60
hates skinny wimmen ! 47
hates virtue itself ? 42
hatred begets hatred . 72
hatred breeds hatred . 78
hatred toward another . 61
hatred toward anyone . 80
hatred toward england . 90
hatred toward whites . 61
hatred vented itself . 120
hazard another battle . 102
hazard lights blinking . 98
hazard lights flashing . 172
headed little fellow . 40
headed nuclear family . 156
headed toward boston . 67
headed toward france . 47
headed toward london . 56
headed toward mexico . 46
headed toward moscow . 46
headed toward school . 80
healed through prayer . 365
healed without scarring . 203
healthy cardiac tissue . 49
healthy corneal tissue . 70
healthy family system . 111
healthy female infant . 58
healthy gingival pocket . 62
healthy gingival sulcus . 67
healthy gingival tissue . 69
healthy immune system . 1929
healthy little fellow . 51
healthy mental habits . 44
healthy middle ground . 47
healthy muscle tissue . 147
healthy ovarian tissue . 56
healthy potato plants . 56
healthy profit margin . 189
healthy public debate . 43
healthy public opinion . 734
healthy public policy . 640
healthy public sphere . 55
healthy public spirit . 42
healthy sexual desire . 50
healthy tissue intact . 81
healthy worker effect . 359
healthy younger adults . 46
heareth strange voices . 110
hearted fellow enough . 75
hearted little fellow . 42
hearty english cheers . 80
hearty female stench . 45
heated debate ensued . 717
heated dinner plates . 171
heated public debate . 1178
heathen nations around . 40
heather without replying . 51
heaven through christ . 59
heaven without christ . 61
heavier alkali metals . 87
heavier atomic nuclei . 228
heavily barred window . 115
heavily creamed coffee . 53
heavily draining wounds . 74
heavily draped window . 62
heavily edited version . 65
heavily fished waters . 100
heavily loaded barges . 54
heavily loaded system . 138
heavily loaded trucks . 119
heavily loaded wagons . 376
heavily loaded wheels . 46
heavily nickel plated . 78
heavily rouged cheeks . 73
heavily scored through . 48
heavily soiled clothes . 62
heavily traded stocks . 67
heavily wooded forest . 79
heavily wooded island . 50
heavily wooded ravine . 84
heavily wooded regions . 88
heavily wooded section . 51
heavily wooded shores . 92
heavily wooded slopes . 109
heavily wooded valley . 128
height fallen through . 145
height without injury . 60
helmet without effect . 42
helped another person . 80
helped beyond measure . 50
helped myself freely . 48
helped slaves escape . 158
helping another person . 416
helping slaves escape . 243
helps another person . 45
helps reduce errors . 44
helps reduce stress . 317
helps reduce swelling . 141
helps reduce tension . 59
helps release tension . 41
hence cardiac output . 160
hence higher prices . 72
hence termed synovia . 50
herbal materia medica . 55
herein before stated . 311
herein judged wisely . 106
heroic little figure ! 58
herpes zoster lesions . 60
herpes zoster oticus . 857
hidden behind another . 87
hidden behind bushes . 123
hidden behind clouds . 855
hidden markov chains . 119
hidden markov modeling . 51
hidden markov models . 5218
hidden valley beyond . 42
hideous beyond belief . 75
hides deeply scored . 43
hides strange crimes . 194
higher alpine regions . 58
higher animal begins . 55
higher animal groups . 53
higher annual income . 226
higher atomic number . 2342
higher atomic weight . 1054
higher barren plateau . 44
higher carbon levels . 46
higher carbon steels . 260
higher cardiac output . 400
higher charge states . 183
higher coffee prices . 102
higher copper prices . 54
higher cotton prices . 68
higher credit limits . 115
higher cruising speeds . 59
higher damage awards . 78
higher degree levels . 97
higher dipole moment . 86
higher divine nature . 63
higher dollar amount . 55
higher dollar prices . 47
higher dosage levels . 310
higher effort levels . 82
higher energy demand . 42
higher energy intake . 93
higher energy levels . 3793
higher energy losses . 93
higher energy orbits . 70
higher energy output . 59
higher energy prices . 1638
higher energy regions . 52
higher energy scales . 53
higher energy states . 1518
higher energy values . 158
higher ethical values . 128
higher export levels . 53
higher export prices . 332
higher factor prices . 76
higher family income . 267
higher filler loadings . 53
higher flight speeds . 75
higher future income . 470
higher future prices . 480
higher ground behind . 101
higher ground beyond . 275
higher ground inland . 143
higher impact strength . 236
higher import duties . 303
higher import prices . 725
higher income earners . 336
higher income family . 65
higher income groups . 7944
higher income levels . 4621
higher income regions . 53
higher income states . 55
higher income status . 42
higher income strata . 158
higher initial levels . 55
higher initial outlay . 44
higher initial tension . 41
higher initial values . 50
higher intake levels . 60
higher labour inputs . 46
higher landau levels . 95
higher lighting levels . 47
higher market prices . 860
higher market shares . 196
higher market values . 149
higher mental energy . 43
higher mental levels . 271
higher mental planes . 44
higher mental powers . 1038
higher mental skills . 93
higher mental states . 166
higher mental traits . 44
higher middle school . 203
higher neural levels . 146
higher normal school . 306
higher nuclear charge . 167
higher octane number . 448
higher output levels . 582
higher output powers . 131
higher output prices . 220
higher oxygen demand . 80
higher oxygen levels . 112
higher oxygen tension . 92
higher oxygen uptake . 44
higher petrol prices . 41
higher photon energy . 145
higher piston speeds . 44
higher plasma levels . 230
higher ploidy levels . 169
higher policy levels . 81
higher posted prices . 51
higher priced brands . 102
higher priced market . 269
higher priced models . 187
higher priced stocks . 132
higher prices abroad . 86
higher profit levels . 155
higher profit margin . 1042
higher public esteem . 173
higher public office . 435
higher public spending . 407
higher reasoning powers . 47
higher recall scores . 47
higher rental income . 109
higher retail prices . 1328
higher ritual status . 179
higher safety factor . 82
higher salary grades . 61
higher salary levels . 266
higher salary scales . 95
higher school grades . 154
higher school levels . 117
higher school system . 86
higher signal levels . 347
higher signal strength . 53
higher silver prices . 63
higher sodium levels . 43
higher spatial scales . 90
higher spending levels . 87
higher spinal levels . 43
higher staffing levels . 68
higher starting salary . 404
higher starting torque . 276
higher status groups . 1355
higher status levels . 198
higher status person . 156
higher strain levels . 155
higher strength alloys . 53
higher strength levels . 118
higher strength steels . 181
higher strength values . 130
higher stress levels . 1651
higher stress values . 64
higher strike prices . 57
higher stroke volume . 82
higher system levels . 175
higher tariff duties . 64
higher tariff levels . 42
higher tastes depend . 51
higher thermal stress . 148
higher ticket prices . 463
higher tissue levels . 41
higher torque values . 73
higher training abroad . 49
higher travel speeds . 76
higher tropic levels . 107
higher version number . 103
higher visual acuity . 47
higher volume levels . 83
higher worker morale . 74
higher yielding assets . 307
highly acidic layers . 59
highly active enzyme . 40
highly arched palate . 99
highly dubious nature . 53
highly erotic nature . 40
highly ethical manner . 50
highly formal manner . 61
highly gifted artist . 110
highly gifted nature . 46
highly gifted person . 82
highly gifted pupils . 63
highly gifted writer . 109
highly inbred strain . 84
highly ingenious manner . 80
highly ionized plasma . 112
highly liquid assets . 1281
highly liquid market . 82
highly marked degree . 51
highly mobile forces . 99
highly mobile groups . 98
highly placed person . 102
highly placed source . 83
highly prized animal . 44
highly prized letter . 45
highly prized values . 62
highly prized virtue . 82
highly public manner . 48
highly saline fluids . 82
highly saline waters . 204
highly secret matter . 97
highly secret mission . 221
highly secret nature . 125
highly serious matter . 59
highly sexual nature . 40
highly spiced dishes . 134
highly turbid waters . 76
highly uneven manner . 68
highly useful device . 56
highly valued abroad . 51
highly valued assets . 55
highly valued friend . 239
highly valued object . 70
highly valued reward . 41
highly valued skills . 74
highly valued traits . 56
highly varied nature . 51
highly visual manner . 53
hills became higher . 50
hills behind cannes . 40
hills farther inland . 62
hills further inland . 54
hinder tender offers . 101
hints touching tophet ? 77
hired another artist . 57
hired another lawyer . 74
hired female labour . 88
hired saddle horses . 40
hitting another person . 84
holder without notice . 184
holding annual meetings . 103
holding another object . 132
holding another office . 73
holding church office . 43
holding common stocks . 60
holding direct claims . 49
holding further office . 51
holding liquid assets . 160
holding monthly meetings . 72
holding prayer meetings . 143
holding public meetings . 928
holding public office . 14052
holding secret meetings . 283
holding special meetings . 46
holding street meetings . 49
holding various weapons . 58
holding weekly meetings . 97
holds annual meetings . 254
holds monthly meetings . 151
holds public office . 189
holds weekly meetings . 104
holes before dinner . 53
holes evenly spaced . 44
holler bloody murder . 88
hollow building blocks . 55
hollow cathode source . 80
hollow piteous shriek . 64
hollow viscus injury . 157
homes became common . 43
homes before sunset . 59
homes farther inland . 42
homes without fathers . 199
honest fellow enough . 47
honest little fellow . 61
honest manual labour . 61
honest public opinion . 67
honest public spirit . 40
honor amongst thieves . 54
honor beyond itself . 52
honour amongst thieves . 285
honour useful labour . 399
hoped through christ . 98
hopes proved futile . 168
horns curved upward . 40
horrid little wretch ! 41
horror through europe . 86
horse before dinner . 44
horse called bentham . 113
horse trailing behind . 63
horse walked slowly . 61
horses driven abreast . 44
horses driven tandem . 49
horses needed repose . 93
horses swimming behind . 56
horses trailing behind . 44
horses without number . 62
horses without riders . 140
hosting special events . 59
hosts special events . 60
hotel before dinner . 63
hotel training school . 49
hounds howled around . 68
hourly farther abroad . 69
hourly gained strength . 63
hours around midday . 74
hours before arranging . 204
hours before bleeding . 56
hours before churning . 95
hours before counting . 59
hours before dinner . 1086
hours before drinking . 112
hours before freezing . 151
hours before grilling . 207
hours before grouting . 58
hours before handling . 59
hours before hatching . 136
hours before launch . 180
hours before midday . 86
hours before needed . 68
hours before painting . 49
hours before planting . 1078
hours before pressing . 49
hours before release . 46
hours before removing . 45
hours before retiring . 595
hours before roasting . 137
hours before sampling . 216
hours before scanning . 63
hours before school . 97
hours before shipping . 82
hours before sleeping . 117
hours before staining . 90
hours before starting . 172
hours before stopping . 90
hours before sunset . 2779
hours before supper . 232
hours before takeoff . 239
hours before training . 52
hours before travel . 64
hours before twelve . 84
hours before weighing . 136
hours before whelping . 340
hours behind london . 60
hours behind sydney . 105
hours passed slowly . 1189
hours should elapse . 71
hours slowly passed . 106
hours varies greatly . 73
hours without blinking . 72
hours without charge . 148
hours without damage . 65
hours without drinking . 100
hours without effect . 50
hours without injury . 186
hours without mishap . 45
hours without oxygen . 62
hours without relief . 351
hours without result . 124
hours without sleeping . 127
hours without spoiling . 287
hours without stirring . 351
hours without stopping ! 1863
hours without vomiting . 48
hours worked weekly . 82
house another minute ! 343
house another moment . 58
house around eleven . 56
house arrest instead . 40
house arrest orders . 45
house became silent . 154
house became vacant . 54
house before dinner . 211
house before entering . 51
house before retiring . 43
house before school . 135
house before sunset . 100
house before winter . 97
house concur therein . 78
house enough already ? 43
house except myself . 115
house lighting system . 231
house lights dimmed . 532
house looked shabby . 42
house needed painting . 133
house plumbing system . 106
house seemed asleep . 54
house seemed changed . 57
house seemed strange . 41
house travel agency . 107
house without debate . 46
house without knocking . 869
house without lights . 47
house without makeup . 54
house without mishap . 76
house without notice . 69
house without plumbing . 44
house without replying . 76
house without stopping . 275
houses across europe . 49
houses became common . 63
houses called hogans . 40
houses needed painting . 46
houses remain standing . 56
houses seemed asleep . 64
houses seemed changed . 52
houses without debate . 55
houses without drains . 73
houses without knocking . 52
housing credit agency . 170
housing market itself . 84
housing market trends . 55
housing policy issues . 70
housing policy reform . 87
housing supply system . 72
hovering around freezing . 84
hovering insect flight . 125
howled bloody murder . 41
howling bloody murder . 64
howling monkey groups . 107
human agency itself . 89
human animal itself . 48
human antral mucosa . 49
human aortic intima . 154
human aortic tissue . 162
human aortic valves . 43
human belief system . 70
human biceps muscle . 57
human biliary tracts . 49
human buccal mucosa . 196
human cancer therapy . 267
human cancer tissue . 111
human cannon fodder . 58
human cardiac arrest . 94
human cardiac muscle . 281
human cardiac myosin . 58
human cardiac tissue . 132
human carious dentin . 97
human ciliary muscle . 74
human corneal tissue . 55
human corpus luteum . 693
human creation before . 92
human dental caries . 228
human dental enamel . 829
human dental plaque . 1295
human desire itself . 44
human disease agents . 56
human disease states . 419
human disease traits . 70
human domain expert . 49
human dwelling places . 91
human emotion itself . 52
human energy fields . 190
human energy system . 388
human factor issues . 41
human family itself . 161
human family member . 81
human female figure . 52
human female pelvis . 52
human figure appears . 64
human figure drawings . 1786
human figure itself . 116
human forearm muscle . 83
human fossil record . 410
human foster parent . 53
human genome itself . 89
human gingival tissue . 97
human gravid uterus . 60
human immune system . 3712
human jigsaw puzzle . 44
human kidney cortex . 81
human kidney disease . 57
human kidney tissue . 116
human limbic system . 121
human marrow grafting . 225
human memory system . 316
human mental effort . 59
human mental powers . 73
human mental states . 256
human muscle disease . 107
human muscle fibers . 329
human muscle fibres . 172
human muscle nerves . 201
human muscle tissue . 269
human nature admits . 80
human nature allows . 246
human nature another . 107
human nature appears . 136
human nature aright . 44
human nature better . 232
human nature changed . 377
human nature changes ! 349
human nature craves . 72
human nature exists . 258
human nature instead . 72
human nature itself ! 15041
human nature rebels . 130
human nature remain . 82
human neural system . 97
human ocular fundus . 91
human ovarian cancer . 841
human ovarian tissue . 317
human ovarian tumors . 158
human person itself . 66
human plasma levels . 46
human psyche itself . 222
human rabbit warren . 44
human reality itself . 123
human reasoning powers . 68
human rectal cancer . 122
human rectal mucosa . 151
human rights abroad . 780
human rights abuser . 55
human rights abuses . 21590
human rights accord . 45
human rights actions . 43
human rights agency . 155
human rights agenda . 1667
human rights aspect . 52
human rights bodies . 1190
human rights causes . 330
human rights claims . 645
human rights clause . 166
human rights corpus . 178
human rights courts . 132
human rights crimes . 510
human rights crises . 81
human rights crisis . 218
human rights debate . 440
human rights denied ? 44
human rights domain . 58
human rights effort . 79
human rights expert . 43
human rights fields . 120
human rights forums . 99
human rights groups . 4926
human rights impact . 47
human rights issues . 12962
human rights itself . 156
human rights lawyer . 365
human rights leaders . 111
human rights matter . 65
human rights meetings . 44
human rights mission . 65
human rights office . 115
human rights organs . 169
human rights policy . 4244
human rights reasons . 194
human rights record . 8368
human rights reform . 140
human rights regime . 2250
human rights report . 347
human rights review . 52
human rights sector . 61
human rights sphere . 112
human rights stance . 81
human rights status . 55
human rights system . 1616
human rights theories . 96
human rights topics . 124
human rights training . 277
human rights values . 519
human rights worker . 104
human senses fitted . 83
human sexual desire . 267
human sexual drives . 43
human sexual nature . 89
human sexual organs . 110
human sexual orgasm . 80
human soleus muscle . 97
human spatial memory . 78
human speech itself . 148
human speech organs . 121
human speech sounds . 617
human spinal column . 204
human spirit itself . 659
human static strength . 49
human striate cortex . 155
human thermal system . 75
human thought itself . 935
human thyroid cancer . 72
human thyroid disease . 58
human thyroid glands . 91
human thyroid slices . 76
human thyroid tissue . 315
human thyroid tumors . 194
human tissue slices . 60
human tumour tissue . 52
human vacuum cleaner . 115
human visual acuity . 85
human visual cortex . 2071
human visual pathway . 113
human visual system . 7313
humane prison system . 50
humane public policy . 137
humans should aspire . 55
humans should behave . 85
humble parish priest . 85
humbly begged pardon . 60
humbly commit myself . 46
humbly craved pardon . 40
humbly submit myself . 44
humid eastern states . 49
humid forest regions . 48
humid summer nights . 100
humid united states . 54
hungry before dinner . 60
hungry little smacks . 46
hungry timber wolves . 47
hungry united states . 51
hunter safety course . 88
hunting plains indians . 53
hurls broken boughs . 40
hurting another person . 627
hurting something fierce . 83
hurts another person . 128
hurts something fierce . 66
husky little biceps ! 54
hybrid poplar clones . 112