headlong flight before him 49
hearsay report should then 133
heavens opened before him 50
heavens seemed ablaze with 44
heavens seemed filled with 51
heavier alkali metals are 61
heavily loaded trucks and 55
heavily loaded wagons and 166
heavily nickel plated and 57
heavily rouged cheeks and 68
heavily wooded slopes and 90
hedges already clothed with 58
height appears greater than 112
height sacred virtue and 74
height versus weight for 50
hereby become surety for 179
hereby further agreed and 1669
hereby further agreed that 1124
hereby further agrees that 293
hereby further charge and 84
hereby further direct and 82
hereby further direct that 257
hereby further freely and 49
hereby further invite and 62
hereby pledge myself not 397
hereby pledge myself that 85
heresy should infect his 66
heresy should suffer death 53
heroic bodily strength and 92
heroic little monkey who 91
hidden agenda behind his 43
hidden agenda behind this 124
hidden behind bushes and 195
hidden behind clouds and 103
hidden behind clouds for 45
hidden behind hedges and 171
hidden markov models and 2299
hidden markov models are 473
hidden markov models can 49
hidden markov models for 1458
hidden markov models that 143
hidden markov models with 313
hidden motive behind all 123
hidden source whence they 41
higher annual income than 363
higher annual return than 142
higher annual salary than 111
higher atomic number and 538
higher atomic number are 288
higher atomic number has 113
higher atomic number than 1950
higher atomic weight and 161
higher atomic weight are 161
higher atomic weight has 85
higher atomic weight may 84
higher atomic weight than 1368
higher beyond thought than 62
higher carbon dioxide and 90
higher carbon steels and 61
higher carbon steels are 111
higher cardiac output and 578
higher cardiac output than 193
higher charge states and 79
higher charge states are 69
higher coffee prices and 73
higher cotton prices and 77
higher course grades than 54
higher credit limits and 41
higher credit standing than 63
higher crushing strength than 118
higher degree convex than 82
higher dipole moment than 184
higher dollar amount than 69
higher dollar prices for 106
higher empathy scores than 51
higher energy demand for 43
higher energy intake and 65
higher energy intake than 106
higher energy levels and 656
higher energy levels are 586
higher energy levels can 60
higher energy levels for 76
higher energy levels may 58
higher energy levels than 534
higher energy levels that 113
higher energy levels with 81
higher energy output than 56
higher energy prices and 826
higher energy prices are 212
higher energy prices can 48
higher energy prices for 88
higher energy prices may 102
higher energy prices than 62
higher energy prices that 209
higher energy states and 236
higher energy states are 325
higher energy states can 62
higher energy states than 138
higher energy states with 46
higher energy values than 56
higher enzyme levels than 53
higher ethical values than 51
higher export prices and 164
higher export prices for 137
higher factor prices and 45
higher family income and 219
higher family income than 158
higher family income was 47
higher future income and 54
higher future prices and 105
higher future prices may 58
higher grades always has 45
higher ground behind him 40
higher ground behind them 170
higher ground through this 40
higher impact strength and 206
higher impact strength than 308
higher import duties and 209
higher import duties are 47
higher import duties than 94
higher import prices and 439
higher import prices are 70
higher import prices for 171
higher import prices that 41
higher income earners and 105
higher income earners are 55
higher income earners who 54
higher income groups and 1423
higher income groups are 984
higher income groups but 96
higher income groups can 190
higher income groups did 58
higher income groups for 116
higher income groups had 116
higher income groups has 90
higher income groups may 178
higher income groups pay 126
higher income groups than 447
higher income groups that 223
higher income groups use 46
higher income groups was 133
higher income groups who 435
higher income groups with 134
higher income levels and 930
higher income levels are 429
higher income levels but 55
higher income levels can 72
higher income levels for 176
higher income levels may 77
higher income levels than 706
higher income levels that 55
higher income levels who 46
higher income levels with 42
higher income limits for 57
higher initial levels and 46
higher levels before they 68
higher levels should not 68
higher lighting levels than 46
higher market prices and 179
higher market prices for 383
higher market prices than 182
higher market shares and 143
higher market shares are 60
higher market shares for 50
higher market shares than 120
higher market values and 56
higher market values for 80
higher market values than 111
higher mental powers and 127
higher mental powers are 183
higher mental powers than 132
higher middle school and 44
higher monthly income than 152
higher normal school and 71
higher normal school for 236
higher normal school was 77
higher nuclear charge and 101
higher octane number and 101
higher octane number than 431
higher output levels and 116
higher output levels are 71
higher output levels than 100
higher output powers and 74
higher output prices and 105
higher oxygen levels and 49
higher oxygen levels than 59
higher oxygen tension and 42
higher oxygen tension than 94
higher oxygen uptake than 66
higher photon energy and 60
higher photon energy than 67
higher piston speeds and 44
higher plasma levels and 160
higher plasma levels are 72
higher plasma levels for 50
higher plasma levels than 188
higher posted prices and 63
higher prices abroad than 107
higher prices without any 78
higher profit levels than 61
higher profit margin and 174
higher profit margin for 170
higher profit margin per 59
higher profit margin than 645
higher public esteem than 51
higher public spending and 242
higher public spirit and 110
higher recall scores than 113
higher retail prices and 297
higher retail prices for 426
higher retail prices than 144
higher ritual status and 53
higher ritual status than 100
higher safety factor for 49
higher safety factor than 79
higher salary levels and 94
higher salary levels than 82
higher salary scales and 63
higher salary scales for 49
higher salary scales than 74
higher school grades and 66
higher school grades than 104
higher sierra nevada and 43
higher spending levels for 48
higher staffing levels and 60
higher starting salary and 124
higher starting salary than 380
higher starting torque and 120
higher starting torque than 371
higher starting torque with 48
higher status groups and 152
higher status groups are 128
higher status groups than 48
higher status levels and 43
higher status levels than 42
higher strength levels are 50
higher strength levels than 52
higher strength steels and 91
higher strength steels are 57
higher strength steels with 53
higher strength values are 43
higher strength values than 154
higher stress levels and 610
higher stress levels are 190
higher stress levels for 160
higher stress levels than 1072
higher stress scores than 257
higher stroke volume and 72
higher ticket prices and 220
higher ticket prices for 62
higher ticket prices than 61
higher verbal scores than 135
higher version number than 69
higher visual acuity than 121
highly arched palate and 59
highly gifted writer and 50
highly ingenious scheme with 43
highly liquid assets and 208
highly liquid assets are 72
highly liquid assets that 395
highly liquid market for 44
highly placed person who 61
highly placed public men 49
highly public affair with 106
highly saline waters are 158
highly spiced dishes and 61
highly useful device for 145
highly useful source for 61
highly valued except for 41
highly valued friend and 120
highly valued skills and 87
hinted pretty clearly that 155
hissed closed behind him 65
hoarse murmur through this 94
hoarse voices called him 83
holder without notice for 51
hollow bamboo filled with 45
hollow building blocks and 47
hollow cavity filled with 67
hollow center filled with 97
hollow cheeks filled out 45
hollow gourds filled with 58
hollow partly filled with 54
hollow prisms filled with 57
hollow shells filled with 82
hollow shells without any 67
hollow spaces filled with 128
hollow sphere filled with 237
hollow square around him 83
hollow square around them 52
hollow trunks filled with 43
hollow vessel filled with 426
homely virgin amiable and 154
honest english speech was 54
honest little grocer with 87
honest person claims that 69
honest tailor creeping out 55
honest william dobbin was 45
horrid crimes amongst men 54
horrid thought struck her 51
horrid thought struck him 47
horror passed through her 166
horses grazed beside them 52
horses heavily loaded with 48
horses swimming beside them 86
horses trailing behind them 40
horses turned around and 49
houses became larger and 244
houses become larger and 97
houses little better than 313
houses richly fitted with 63
houses should concur for 85
humans should strive for 85
humble before nature and 41
humble itself before god 206
humble itself before him 50
humble myself before god 1110
humble myself before her 87
humble myself before him 859
humble myself before thee 652
humble myself before them 103
humble myself before you 858
humble thyself before god 207
humbling myself before god 140
humbling myself before him 130
humbly begged pardon for 185
humbly craved pardon for 45
humbly kneeling before him 107
humbly kneeling before his 48
hurrying toward gayety and 47
hybrid expert system for 156