sea at various places 97
sea at various points 313
sea by narrow strips 127
sea in summer tedious 63
sea in various places 95
sea is almost always 248
sea is always warmer 42
sea is another matter 84
sea it passes through 59
sea of arctic canada 61
sea of bodies parted 48
sea of bright yellow 116
sea of copley fielding 51
sea of flashing lights 46
sea of fleecy clouds 47
sea of forces storming 59
sea of golden clouds 47
sea of liquid silver 290
sea of modern thought 55
sea of molten matter 62
sea of molten silver 236
sea of noxious liquid 135
sea of public opinion 414
sea of rippling waters 46
sea of sorrow formed 71
sea of thought without 48
sea on stormy nights 54
sea or inland waters 512
sea or washed ashore 68
sea the fields sloped 43
sea the matter poured 53
sea the united states 322
sea to another island 62
sea to london bridge 52
sea to number should 50
sea we passed through 103
sea we should lessen 47
sing an english ballad 77
sing an octave higher 359
sing in choral groups 87
sing in church choirs 691
sing in public before 81
sing in public places 52
sing in sunday school 250
sing it through without 69
sing my little stanza 40
sing on sunday evenings 41
sing on sunday mornings 122
sing or recite before 80
sing the divine office 795
sing the english version 49
sing the entire melody 84
sing the entire phrase 51
sing the furious troops 225
sing the heroic warrior 134
sing the melody without 47
sing the psalms better 61
sing the second phrase 93
sing the second stanza 449
sing the strange reward 40
sing the winter through 43
so an effort should 174
so as almost wholly 52
so as fiscal agents 66
so as thereby neither 668
so at higher levels 232
so at higher speeds 63
so at various levels 85
so at various periods 53
so at various points 90
so at various stages 40
so be justly called 63
so by another person 91
so by causes beyond 46
so by dividing itself 44
so by mutual insult 51
so by public opinion 222
so by various methods 49
so he almost always 66
so he almost missed 50
so he always called 1555
so he always looked 155
so he always seemed 83
so he always thought 84
so he always walked 53
so he always wanted 61
so he became afraid 52
so he became famous 45
so he became something 40
so he bought another 152
so he called another 66
so he called drinking 48
so he called pompey 73
so he changed course 94
so he created another 44
so he created mothers 82
so he ducked behind 46
so he feebly braves 45
so he hardly looked 131
so he hardly needed 82
so he hunted around 48
so he issued orders 135
so he joined another 44
so he joined forces 82
so he jumped through 59
so he lagged behind 51
so he looked across 48
so he looked around 1970
so he looked through 315
so he merely filled 40
so he merely looked 63
so he merely nodded 499
so he merely smiled 154
so he needed someone 95
so he needed something 53
so he opened another 47
so he passed through 572
so he passed without 41
so he passes through 40
so he peered through 41
so he poured another 57
so he pushed harder 87
so he pushed through 186
so he reached across 67
so he reached around 54
so he readily agreed 226
so he relied heavily 60
so he rushed through 135
so he sailed without 53
so he should accept 48
so he should always 112
so he should become 82
so he should decide 50
so he should pursue 92
so he should remain 94
so he should return 44
so he should suffer 63
so he showed little 41
so he sighed deeply 40
so he simply called 78
so he simply lifted 40
so he simply nodded 254
so he simply smiled 75
so he simply stared 48
so he simply stayed 45
so he simply turned 116
so he simply waited 67
so he simply walked 191
so he slowly walked 55
so he smiled gently 55
so he sought advice 91
so he sought another 169
so he sought refuge 122
so he stands before 49
so he stands lighting 50
so he stared upward 82
so he stayed around 133
so he stayed behind 699
so he stayed hidden 43
so he stayed silent 229
so he struck across 72
so he talked always 145
so he talked instead 43
so he taught school 56
so he thought better 308
so he thought proper 67
so he tiptoed across 145
so he turned around 2819
so he turned instead 121
so he turned toward 304
so he waited another 40
so he walked across 289
so he walked around 1149
so he walked beside 45
so he walked slowly 679
so he walked through 588
so he walked toward 240
so he worked harder 54
so he worked through 46
so if anyone should 202
so if anyone wanted 173
so if someone wanted 99
so in another aspect 71
so in another letter 58
so in another manner 50
so in another minute 304
so in another moment 64
so in another person 54
so in christ should 69
so in common speech 57
so in earlier periods 88
so in earlier stages 44
so in eastern europe 680
so in england before 144
so in england twenty 59
so in future without 46
so in greater degree 45
so in greater detail 132
so in greater measure 47
so in lesser degree 95
so in middle english 54
so in minute detail 43
so in modern europe 41
so in nature itself 57
so in public before 60
so in public opinion 61
so in public places 139
so in secret without 49
so in timely fashion 56
so in united states 92
so in vainly pursuing 93
so in various places 68
so is almost always 295
so is always unable 58
so is another matter 1242
so is better suited 176
so is clearly proved 43
so is entire nature 57
so is fairly obvious 42
so is further proved 106
so is ideally suited 162
so is little gained 57
so is master roland 41
so is obvious enough 71
so is placed before 53
so is public opinion 83
so is simple enough 72
so is something higher 53
so it almost always 135
so it almost looked 48
so it almost seemed 130
so it always appears 82
so it always became 45
so it always looked 67
so it always points 42
so it always seemed 718
so it appears likely 235
so it became almost 125
so it became another 40
so it became common 122
so it became harder 224
so it became obvious 251
so it became public 114
so it became something 101
so it browns evenly 69
so it causes something 43
so it hardly counts 44
so it hardly seemed 133
so it looked almost 98
so it looked pretty 168
so it offers itself 112
so it offers little 131
so it passed through 188
so it passed without 70
so it passes through 1357
so it points toward 71
so it proved indeed 108
so it relies heavily 68
so it remain without 59
so it seemed almost 161
so it seemed anyway 42
so it seemed before 164
so it seemed better 580
so it seemed hardly 45
so it seemed highly 48
so it seemed likely 1564
so it seemed obvious 189
so it seemed pretty 65
so it seemed proper 52
so it seemed strange 347
so it seemed through 61
so it seemed wisest 45
so it should always 566
so it should arrive 42
so it should become 223
so it should follow 121
so it should happen 124
so it should hardly 95
so it should remain 430
so it sounds better 50
so my brother called 113
so my deeper belief 69
so my driver pulled 107
so my little brother 172
so my little sister 139
so my moment passed 45
so my oldest brother 46
so my younger brother 180
so no choice before 61
so no further changes 125
so no further mention 159
so no matter whether 401
so no person should 108
so no reaction occurs 44
so no serious damage 61
so of course neither 49
so of course nobody 257
so of course thought 237
so of earlier courts 91
so of pretty direct 91
so of tinted silken 49
so on almost without 397
so on friday nights 85
so on sunday mornings 192
so on through almost 168
so on through another 67
so on through dozens 51
so on through higher 41
so on through mutual 54
so on through number 238
so on through scores 52
so on through twelve 43
so on through twenty 135
so on through various 249
so on upward through 79
so on without number 83
so on without regard 45
so on without stopping 104
so or merely seemed 53
so the actual amount 516
so the actual cleansing 47
so the actual effect 59
so the actual extent 59
so the actual figure 75
so the actual impact 48
so the actual number 1967
so the actual output 126
so the actual result 99
so the actual values 81
so the actual volume 47
so the affair passed 122
so the affair rested 193
so the allies became 43
so the amiable couple 93
so the animal should 52
so the answer should 722
so the archer symbol 113
so the artist should 59
so the artist simply 182
so the atomic number 572
so the atomic weight 359
so the autumn passed 109
so the autumn rolled 43
so the batter covers 105
so the batter spreads 100
so the battle begins 114
so the better fitted 133
so the binary number 48
so the blushing little 97
so the bottle should 43
so the building blocks 91
so the building itself 121
so the building should 86
so the camera should 97
so the carbon dioxide 497
so the cardiac output 77
so the chilling effect 64
so the choice should 479
so the church became 228
so the church itself 194
so the church should 615
so the church teaches 110
so the circle closed 50
so the circle closes 116
so the client should 455
so the common belief 94
so the common lights 67
so the common opinion 82
so the common wisdom 133
so the couple should 91
so the courts should 88
so the crisis passed 264
so the damage caused 93
so the debating inside 133
so the design should 207
so the diction always 66
so the dinner passed 154
so the dipole moment 148
so the direct effect 139
so the disease should 81
so the disease spreads 255
so the divine nature 198
so the divine spirit 320
so the divine wisdom 43
so the doctor called 98
so the doctor should 102
so the doctor thought 189
so the dollar amount 144
so the dosage should 47
so the double number 66
so the dreamer dreamed 89
so the dreamer gathers 94
so the driver pulled 105
so the driver should 40
so the earnest become 43
so the effect occurs 59
so the effect should 52
so the energy levels 285
so the energy needed 147
so the energy stored 159
so the english church 180
so the english should 44
so the english thought 111
so the english whaler 55
so the entire amount 436
so the entire building 137
so the entire burden 184
so the entire creation 41
so the entire effect 40
so the entire family 746
so the entire matter 54
so the entire school 115
so the entire section 104
so the entire series 99
so the entire system 489
so the entire weight 50
so the ethical system 70
so the evenings closed 78
so the excess demand 54
so the excess energy 85
so the expert system 111
so the family always 93
so the family became 89
so the family doctor 91
so the family legend 130
so the family member 41
so the family packed 49
so the family should 148
so the family stayed 117
so the family thought 150
so the farmer should 138
so the feudal system 90
so the fierce indians 59
so the figure itself 351
so the findings should 63
so the finest curves 53
so the former caused 79
so the former should 141
so the fossil record 163
so the founding fathers 106
so the french called 141
so the french forces 42
so the french pushed 48
so the french thought 171
so the french troops 51
so the future looked 116
so the german troops 99
so the greater number 638
so the greater portion 118
so the greeks called 469
so the greeks thought 203
so the hermit called 68
so the higher levels 113
so the higher styles 59
so the honest fellow 89
so the honest public 47
so the immune system 629
so the income effect 217
so the indians called 136
so the indians should 71
so the indians thought 112
so the initial effect 49
so the initial reaction 51
so the initial values 99
so the island already 94
so the issues raised 120
so the jewish leaders 123
so the knight always 269
so the knight thought 41
so the larger number 161
so the latest version 83
so the latter appears 52
so the latter became 282
so the latter picked 44
so the latter should 715
so the latter states 47
so the latter thought 47
so the latter turned 42
so the learned doctor 98
so the learned voters 44
so the letter closed 139
so the letter should 83
so the letter stated 54
so the letter states 46
so the limiting factor 49
so the liquid barely 101
so the little family 126
so the little fellow 438
so the little rabbit 52
so the little revenge 118
so the little wooden 104
so the london county 40
so the lowest energy 63
so the maiden cities 109
so the makeup artist 47
so the market demand 224
so the market prices 41
so the market should 53
so the market supply 148
so the matter became 109
so the matter passed 327
so the matter rested 3200
so the matter seemed 131
so the matter should 273
so the matter stands 1216
so the measure failed 101
so the member states 70
so the middle section 50
so the middle states 91
so the modern artist 50
so the modern spirit 138
so the modern system 93
so the moment before 43
so the moment passed 310
so the morbid terror 44
so the nuclear family 152
so the number should 54
so the object appears 214
so the object itself 43
so the obvious answer 215
so the obvious choice 196
so the obvious course 56
so the office itself 121
so the opinion closes 42
so the output should 55
so the output signal 422
so the oxygen supply 101
so the papers stated 101
so the parent should 62
so the parish church 43
so the parish priest 175
so the person behind 45
so the person inside 44
so the person should 138
so the phrase should 128
so the planning system 41
so the plants should 175
so the player should 44
so the police called 100
so the police should 93
so the police thought 64
so the policy makers 42
so the potter formed 156
so the profit margin 97
so the profit motive 145
so the proper amount 51
so the proper ordering 193
so the public opinion 42
so the public safety 48
so the public school 212
so the public sector 370
so the public should 205
so the public thought 110
so the pupils should 50
so the reaction occurs 107
so the reaction should 174
so the record stands 51
so the record states 176
so the record styles 114
so the report should 40
so the report stated 167
so the report states 130
so the result proved 238
so the result should 353
so the romans called 113
so the romans thought 167
so the russian peasant 47
so the sacred office 41
so the safest course 201
so the safety factor 69
so the sample should 118
so the scheme failed 123
so the school became 120
so the school should 135
so the school system 311
so the seasons passed 92
so the second choice 88
so the second clause 234
so the second column 159
so the second edition 200
so the second factor 85
so the second member 55
so the second number 70
so the second person 197
so the second player 110
so the second section 213
so the second version 92
so the second volume 41
so the second winter 40
so the secret police 181
so the seller should 62
so the sequel proved 131
so the shower passed 77
so the signal strength 42
so the silver dollar 47
so the simple answer 83
so the soviet leaders 176
so the speaker engaged 46
so the speaker should 154
so the special forces 50
so the stored energy 111
so the strain energy 191
so the stroke volume 49
so the summer passed 846
so the sunday school 93
so the sunset soothed 130
so the surgeon should 275
so the system became 101
so the system itself 132
so the system should 636
so the system worked 136
so the teacher called 56
so the teacher should 1108
so the teacher thought 40
so the teacher turned 479
so the thermal energy 184
so the thought struck 242
so the unborn person 199
so the united nations 818
so the united states 16129
so the various genera 45
so the various groups 102
so the vicious circle 2798
so the vicious spiral 41
so the visual effect 41
so the visual system 136
so the volume should 159
so the whites showed 42
so the winter passed 830
so the wisest course 114
so the worker should 132
so the writer should 265
so the younger brother 275
so to acquit myself 97
so to adjust itself 255
so to another person 102
so to arouse public 101
so to arrange duties 45
so to arrange itself 46
so to attend school 139
so to become further 100
so to behave myself 303
so to behave thyself 43
so to choose always 137
so to decide whether 333
so to defend itself 51
so to defend myself 44
so to deport myself 43
so to elapse before 52
so to escape greater 79
so to extend itself 57
so to follow christ 93
so to govern itself 56
so to locate myself 44
so to modify existing 349
so to narrow itself 75
so to reduce prices 103
so to remain silent 239
so to return through 98
so to temper passion 146
so we almost always 139
so we always called 140
so we always thought 46
so we became engaged 41
so we become saints 512
so we bought another 51
so we changed course 75
so we changed places 51
so we hardly notice 103
so we joined forces 174
so we jumped aboard 123
so we looked around 746
so we looked through 189
so we needed something 65
so we parted without 65
so we passed through 871
so we plowed around 57
so we pushed through 88
so we readily agreed 344
so we readily assure 59
so we should accept 487
so we should almost 41
so we should always 988
so we should arrive 70
so we should assume 177
so we should become 120
so we should beware 92
so we should choose 193
so we should define 58
so we should expect 7223
so we should follow 311
so we should hardly 148
so we should listen 113
so we should mention 40
so we should merely 53
so we should neither 508
so we should obtain 40
so we should prefer 62
so we should realize 41
so we should reduce 48
so we should regard 186
so we should reject 119
so we should remain 64
so we should return 128
so we should select 61
so we should simply 63
so we should strive 285
so we should surely 45
so we simply assume 52
so we simply ignore 42
so we simply return 43
so we simply walked 43
so we slowly walked 74
so we stayed another 44
so we stayed behind 47
so we stayed inside 118
so we struck across 88
so we talked through 43
so we turned around 1408
so we turned toward 87
so we waited around 116
so we walked across 218
so we walked around 861
so we walked beside 114
so we walked slowly 218
so we walked through 666
so we walked toward 86
so we wander through 42
so we wonder whether 71
so we worked through 50