table already exists and 61
table before dinner was 133
table before supper was 43
table chopping lazily with 47
table clearly points out 40
table clearly reveals that 450
table drinking coffee and 1046
table drinking coffee with 161
table further reveals that 1313
table placed before him 158
table placed before them 63
table tennis player and 96
table tennis tables and 48
table turned around and 53
table turned toward him 43
table without carrying with 58
table without removing his 133
table without spilling any 45
table without touching them 44
tails deploy upward and 41
tails dragging behind them 43
tails flapping behind him 87
tails streaming behind him 95
tails streaming behind them 143
tails trailing behind them 79
taken abroad without her 47
taken another course and 130
taken another course had 42
taken another course than 133
taken another steamer for 83
taken before assuming that 41
taken before carrying out 43
taken before retiring for 57
taken before surely does 91
taken higher ground than 50
taken little notice and 64
taken little thought for 76
taken physic before she 44
taken refuge amongst them 102
taken refuge behind her 104
taken refuge behind his 103
taken refuge behind its 47
taken refuge behind that 62
taken special training for 46
taken toward carrying out 151
taken various shapes and 49
taken without further ado 111
taken without notice and 111
taken without regard for 440
taken without searching for 57
takes another jealous fit 44
takes carbon dioxide and 81
takes carbon dioxide out 78
takes common ground with 57
takes effect before any 46
takes effect without any 85
takes greater effort and 49
takes higher ground than 68
takes little credit for 77
takes little effort and 176
takes little effort for 104
takes little thought for 107
takes native plants and 45
takes neither genius nor 58
takes refuge behind his 133
takes special effort and 67
takes special skills and 126
takes special training and 117
takes values greater than 135
takes values larger than 52
takes various shapes and 118
talking loudly enough for 141
talking without noticing them 43
talks better english than 104
talks english better than 105
tanks partly filled with 51
tanks turned around and 72
tapping something louder than 71
tared weighing bottle and 236
tasks placed before him 55
tasks placed before them 95
tasks without regard for 104
taste already formed for 49
taste whereof changes not 52
tawny cheeks rushed out 174
taxes became heavier and 41
taxes except estate and 50
taxes except income tax 96
taxes passed through his 41
taxes remain unpaid for 101
taxes without regard for 46
teaching another person how 51
teaching methods should not 70
teaching middle school and 71
teaching middle school math 40
teaching school unless they 40
teaching skills needed for 149
teaching summer school and 166
teaching sunday school and 1635
teaching sunday school for 361
teeming lioness rasped her 44
telling another person how 104
telling another person that 294
telling someone something and 51
telling someone something that 194
telling someone something they 50
tells another person that 107
tenor enrico caruso and 114
tenor enrico caruso was 147
tents standing filled with 62
terms almost anyone can 93
terms atomic number and 48
terms atomic weight and 59
terms little better than 85
terms simple enough for 215
terms without defining them 301
terms without parole for 44
terms without regard for 136
testing center before you 93
testing center nearest you 137
testing nuclear weapons and 197
testing nuclear weapons for 46
testing public opinion and 111
testing rustic strength and 64
testing should ensure that 73
testing visual acuity and 87
tests clearly showed that 298
tests further showed that 225
tests measure skills and 41
tests measure skills that 153
tests measure something that 44
tests measure verbal and 41
tests should ensure that 168
tests should verify that 40
tests showed clearly that 255
texts without regard for 74
theater nuclear forces and 259
theater nuclear forces are 131
theater nuclear forces that 57
theater nuclear weapons and 187
theater nuclear weapons are 126
theirs before christ was 97
thence marching onward had 60
thence through another set 92
thence through france and 45
theorem merely states that 99
theorem simply states that 289
theorem states simply that 45
thereof images hidden and 63
thesis simply states that 45
thieving system formed one 168
thighs locked around his 40
thighs struck through with 88
thinking became futile and 658
thinking before deciding how 40
thinking marrow behind them 52
thinking myself better than 65
thinking skills needed for 404
thinking something serious had 43
thinking through issues and 82
thinks itself better than 56
thinly sliced apples and 48
thinly sliced boiled ham 129
thinly sliced celery and 52
thinly sliced celery cup 57
thinly sliced cooked ham 169
thinly sliced smoked ham 194
thinly traded market for 42
thinly traded stocks that 40
thinly veiled demand for 62
thinly veiled excuse for 194
thinly veiled racism and 41
thirty english lances and 44
thirty german courts and 69
thirty inches across and 67
thirty inches higher than 75
thirty inches square and 178
thirty million pounds and 71
thirty million pounds for 52
thirty million pounds per 50
thirty points higher than 98
thirty pounds heavier and 153
thirty pounds heavier than 569
thirty pounds sterling and 62
thirty pounds sterling for 99
thirty pounds sterling per 602
thirty pounds weight and 51
thirty pounds weight each 62
thirty rolled around and 70
thirty wagons loaded with 123
thirty wooden houses and 59
thither without applying for 53
though agreeing wholly with 52
though almost always with 207
though almost fainting with 43
though always greater than 43
though always honest and 43
though always snubbing his 51
though always treated with 160
though another candle had 270
though another member has 99
though another person had 159
though another person has 57
though another person may 137
though another person was 150
though barren enough they 44
though better fitted for 131
though common enough now 93
though common enough with 48
though custom allows them 45
though debating whether she 45
though deeply engaged with 91
though deeply imbued with 188
though doubts should for 53
though eagerly sought for 64
though england through fear 41
though events proved that 125
though firmly united with 78
though gathering strength for 74
though german faults and 68
though greatly better than 58
though hardly anyone had 61
though higher values are 57
though highly pleased with 63
though highly useful and 43
though highly useful for 85
though honest speech does 49
though indeed always with 50
though indeed partly owing 91
though indeed withering and 72
though indeed without any 41
though kindly treated and 43
though little better than 382
though little bigger than 46
though little damage was 69
though little effort has 58
though little indeed can 90
though little larger than 54
though little notice was 71
though modern readers may 51
though mostly through its 68
though nature itself had 72
though nature itself was 52
though neither coined any 50
though neither gained one 69
though neither learned nor 66
though neither mortal nor 199
though neither myself nor 45
though neither parent was 40
though neither showed any 63
though neither strength nor 53
though neither teacher nor 49
though neither theology nor 41
though nobody doubts but 43
though nobody should read 47
though nobody thought him 48
though nuclear weapons are 42
though partly filled with 69
though philip sterling did 59
though polite manner with 59
though proper enough for 117
though public opinion and 70
though public opinion had 105
though public opinion has 169
though public opinion may 111
though public opinion was 395
though rarely called for 544
though recent events had 65
though richly inlaid with 54
though rudely formed out 143
though signed already with 58
though something better than 85
though something inside her 239
though something inside him 203
though something inside was 60
though something strange had 53
though sorely mangled and 76
though special damage hath 112
though strict orders had 51
though treated always with 94
though united already with 62
though valiant enough for 110
though varied without end 103
though vastly better than 40
though vastly greater than 45
though william showed his 80
though without adducing any 53
though without altering its 117
though without claiming for 43
though without claiming that 83
though without defining them 45
though without deriving any 57
though without exciting any 51
though without implying any 40
though without implying that 136
though without offering any 388
though without offering them 49
though without realizing that 46
though without relaxing her 41
though without spelling out 45
though without vouching for 51
though worlds judged thee 435
threads become thicker and 49
threads passed through them 43
thrill course through her 89
thrill course through him 41
thrill coursing through her 180
thrill passed through her 485
thrill passed through him 400
thrill passed through his 261
thrill passed through them 46
thrill passes through all 298
thrill rushed through her 100
thrill shooting through her 74
thrill shoots through him 51
thrill surged through her 61
throat almost choked her 68
throat almost choked him 67
throat almost closed with 40
throat became louder and 42
throat deeply gashed with 78
throat seemed filled with 44
throne another prince and 159
throne drinking nectar with 44
throne through murder and 41
throwing myself eagerly out 43
throwing stones behind them 160
throwing strange globes and 47
thrown across rivers and 49
thrown myself beside her 55
throws something across one 43
thrust deeper inside her 56
thrust deeply inside her 219
thrust itself before her 44
thrust itself before him 107
thrust itself before his 42
thrust itself through his 46
thrust myself before you 62
thumbs hooked behind his 82
thumbs hooked inside his 100
thumbs hooked through his 96
thumbs pointing toward each 100
thumbs something wicked this 165
tidal carbon dioxide and 314
tidal carbon dioxide can 45
tidal carbon dioxide may 49
tidal carbon dioxide was 51
tidal volume greater than 130
tidings reached england that 45
tidings reached madrid that 91
tidings travel faster than 52
tight circle around her 150
tight circle around him 276
tight circle around his 40
tight circle around them 109
tight collar around his 40
tight credit policy and 105
tight credit policy that 101
tight credit policy was 51
tight fiscal policy and 475
tight fiscal policy has 41
tight fiscal policy that 106
tight fiscal policy was 113
tight fiscal policy with 52
tight little circle and 175
tight little circle that 92
tight little circle with 47
tight little groups and 97
tight little island and 219
tight little island that 53
tight little island was 70
tight little island with 73
tight mounds bonded with 43
tight places before and 60
times allied itself with 77
times annual salary for 46
times another number and 54
times became harder and 41
times before allowing him 43
times before deciding that 256
times before dinner was 50
times before realizing that 336
times before without any 147
times before without being 74
times better chance for 56
times better chance than 49
times better fitted for 53
times better pleased than 44
times better pleased with 50
times better without any 48
times cattle grazed out 41
times faster glides than 46
times greater chance than 70
times greater chance that 47
times greater energy than 47
times greater measure than 42
times greater rogues than 57
times greater strength than 51
times greater volume than 62
times greater weight and 76
times hardly enough for 56
times higher inside than 50
times higher levels than 73
times higher values than 83
times little better than 175
times passed through this 112
times public opinion has 80
times public opinion was 45
times public school and 59
times seemed anxious that 51
times should permit them 42
times showed clearly that 60
times stated before and 61
times through before you 48
times without noticing that 112
times without number and 509
times without number but 81
times without number for 159
times without number has 53
times without number she 54
times without number that 2612
times without number they 64
times without number with 50
times without realizing that 268
times without regard for 121
times without stopping and 84
timid glance behind her 46
tired beyond belief and 119
tired climbing before they 55
tired spirit broods with 54
title should clearly and 44
title should remain with 47
toast without butter and 48
today almost solely for 103
today merely assume that 42
today should realize that 127
today without realizing that 149
today without regard for 85
toils closed around him 130
tombs became larger and 68
tones became deeper and 57
tongue around inside her 74
tongue around inside his 213
tongue curled around her 70
tongue curled around his 48
tongue danced across her 42
tongue darted across her 86
tongue darted across his 80
tongue darted inside her 53
tongue dipped inside her 47
tongue flicking across her 57
tongue flicking across his 47
tongue licked across her 46
tongue played across her 45
tongue plunged inside her 94
tongue should betray him 99
tongue slowly across her 90
tongue thickly coated with 124
topaz aureole around her 43
total amount before any 45
total amount billed for 109
total amount called for 82
total amount greater than 117
total amount issued and 74
total amount issued for 45
total amount issued was 149
total amount loaned was 69
total amount needed and 46
total amount needed for 455
total amount needed was 46
total amount raised and 67
total amount raised for 324
total amount raised was 251
total amount should not 190
total amount varies with 117
total annual budget and 48
total annual budget for 544
total annual budget was 127
total annual charge for 282
total annual demand for 771
total annual energy use 436
total annual figure for 50
total annual income and 261
total annual income does 95
total annual income for 717
total annual income may 56
total annual income per 105
total annual income tax 43
total annual income that 105
total annual income was 725
total annual market for 60
total annual outlay for 127
total annual output being 43
total annual output was 147
total annual return was 42
total annual salary and 686
total assets exceed its 52
total assets greater than 183
total budget figure for 50
total building energy use 44
total carbon dioxide and 438
total carbon dioxide was 78
total cardiac output and 600
total cardiac output per 115
total cardiac output that 158
total cardiac output was 52
total carrying amount and 56
total charge inside this 41
total dipole moment and 51
total dipole moment for 53
total dipole moment per 166
total dollar amount and 242
total dollar amount due 56
total dollar amount for 409
total dollar amount per 47
total dollar amount that 676
total dollar amount was 57
total dollar amount you 220
total dollar figure for 125
total dollar outlay for 57
total dollar volume and 64
total dollar volume for 189
total dosage should not 317
total effect greater than 318
total energy before and 150
total energy budget for 90
total energy demand and 319
total energy demand for 425
total energy demand has 41
total energy demand was 92
total energy entering and 41
total energy greater than 209
total energy inputs and 57
total energy inputs for 72
total energy intake and 780
total energy intake are 47
total energy intake can 50
total energy intake for 160
total energy intake has 70
total energy intake may 76
total energy intake per 66
total energy intake was 353
total energy intake with 93
total energy needed for 235
total energy output and 183
total energy output can 60
total energy output for 92
total energy output per 111
total energy output was 90
total energy release and 61
total energy release for 68
total energy release per 108
total energy release was 47
total energy stored per 57
total energy supply and 202
total energy supply for 68
total energy supply was 81
total energy system and 52
total energy system for 45
total excess demand for 108
total export income and 45
total export income was 44
total export volume and 66
total export volume was 61
total factor income and 64
total factor inputs and 52
total family income and 1029
total family income are 99
total family income but 50
total family income can 59
total family income did 41
total family income does 74
total family income for 760
total family income had 53
total family income has 119
total family income may 111
total family income per 137
total family income tax 73
total family income than 239
total family income that 257
total family income was 807
total family income with 42
total family system and 48
total fighting strength was 191
total french claims for 55
total future demand for 48
total global demand for 60
total global energy use 146
total global market for 104
total import demand for 75
total income before any 71
total income before tax 190
total income greater than 91
total income should not 56
total liquid assets and 54
total liquid assets are 51
total market demand and 284
total market demand for 1273
total market output and 79
total market supply and 117
total market supply that 132
total market volume and 44
total market volume for 57
total monthly charge for 59
total monthly income and 146
total monthly income for 121
total monthly income was 125
total normal stress and 110
total number called out 45
total number killed and 113
total number killed was 194
total number needed for 69
total number should not 114
total number tested was 49
total output greater than 64
total output varies with 54
total oxygen demand and 49
total oxygen demand for 43
total oxygen uptake and 93
total oxygen uptake was 87
total plasma lipids and 78
total plasma volume and 121
total plasma volume may 91
total points scored for 78
total profit before tax 82
total profit margin for 53
total public spending and 320
total public spending for 98
total public spending has 66
total public spending was 153
total radiant energy per 92
total reaction volume was 231
total reactor volume and 49
total reducing sugars and 70
total rental income for 63
total result looked for 84
total return greater than 52
total runoff volume and 42
total runoff volume for 46
total salary budget for 58
total sample agreed that 47
total sample showed that 105
total sample stated that 129
total sample thought that 124
total sample volume and 43
total sample volume was 49
total sample weight and 48
total school budget for 53
total school system and 70
total sexual outlet for 251
total shares issued and 109
total solids should not 88
total square mileage for 50
total stored energy and 91
total stored energy per 105
total strain energy and 155
total strain energy can 99
total strain energy due 97
total strain energy for 199
total strain energy one 149
total strain energy per 241
total strain energy with 82
total stress tensor and 94
total stroke volume and 70
total sulfur dioxide and 54
total system design and 98
total system energy and 47
total united states aid 104
total united states and 254
total united states oil 144
total united states tax 63
total volume greater than 67
total volume needed for 45
total volume should not 207
total weekly income was 46
total weight greater than 109
total weight should not 80
touch another person and 97
touch another person with 59
touch burned through her 56
touch thrilling through his 179
tough enough without being 92
tough enough without that 62
tough enough without you 66
tough gnarly trunks and 41
tours through england and 184
tours through europe and 185
tours through france and 122
towel around myself and 232
towel closer around her 57
towel draped across her 90
towel draped across his 234
towel draped around her 516
towel draped around him 58
towel draped around his 1264
towel looped around his 62
towel pinned around her 55
towel pinned around his 41
towel tucked around her 40
towel tucked around his 125
towns around boston and 50
towns around london and 48
towns became cities and 48
towns became famous for 50
towns became filled with 72
towns became larger and 163
toxic sulfur dioxide gas 204
trace nature through her 90
trace trailing behind him 47
track already marked out 61
track record before they 64
track record before you 56
track record proves that 58
track record showed that 85
trade creation effect and 68
trade lagged behind that 41
trade passed through its 82
trade passed through new 41
trade passed through this 129
trade passes through its 73
trade passes through this 82
trade policy actions and 41
trade policy agenda and 50
trade policy agenda for 56
trade policy changes and 209
trade policy changes are 67
trade policy changes that 154
trade policy issues and 430
trade policy issues are 199
trade policy issues that 196
trade policy options for 175
trade policy reform and 592
trade policy reform are 149
trade policy reform can 116
trade policy reform has 321
trade policy reform that 52
trade policy reform was 147
trade policy regime and 87
trade policy regime has 73
trade policy regime that 132
trade policy regime was 67
trade policy should not 341
trade routes across asia 188
trade routes changed and 89
trade secret claims are 117
trade secret holder has 57
trade secret rights and 160
trade secret rights are 117
trade secret status and 164
trade secret status can 148
trade secret status for 277
trade sexual favors for 560
trade should retain all 95
trade through agents who 48
trade through hudson bay 75
trade through import and 51
trading market exists for 64
trading openly across its 44
trading profit before tax 55
trading sexual favors for 383
trading system should not 83
trail kisses across her 94
trail passes through two 45
trail through forest and 215
train across france and 162
train dragging behind her 41
train future leaders and 119
train future leaders for 70
train glided slowly out 42
train hurtling toward them 45
train passed through one 45
train passes through our 68
train pulled slowly out 474
train rolled slowly out 109
train should remain one 51
train slowly glided out 146
train slowly pulled out 945
train slowly steamed out 161
train station filled with 51
train steamed slowly out 173
train sweeping behind her 56
train through france and 93
train trailing behind her 68
train walked crowns and 46
train without offering any 50
trait theories assume that 110
tramp steamer loaded with 95
tramp through drifts and 96
treating bleaching powder with 66
treaty clearly stated that 125
treaty clearly states that 91
treaty creates rights and 55
treaty further stated that 81
treaty merely stated that 119
trees became larger and 131
trees became taller and 57
trees became thicker and 55
trees become larger and 92
trees become taller and 63
trees breeds cities too 42
trees closed around him 63
trees closed around them 102
trees creeping farther and 60
trees felled across them 57
trees turned yellow and 81
trees without damaging them 73
trees without injuring them 50
trend toward better and 44
trend toward bigger and 419
trend toward earlier age 43
trend toward earlier and 153
trend toward faster and 45
trend toward greater and 751
trend toward greater use 1112
trend toward higher and 209
trend toward larger and 1849
trend toward merger and 96
trend toward realism and 126
trend toward reform and 53
trend toward warmer and 47
trend toward younger age 98
trend toward younger and 41
trials before pilate and 72
trials clearly showed that 89
trials without juries for 58
tribe replying shrill and 63
tried another person for 62
tried another tactic and 41
tried before judges who 77
tried cheering myself with 64
tried various methods and 85
tried various methods for 169
tried without juries both 131
trips around england and 48
trips around europe and 59
trips through europe and 88
trips through france and 52
truck driver should not 44
truck heavily loaded with 46
truck turned around and 166
truck weight limits and 44
truly english object was 82
truly global market for 74
truly heroic spirit may 48
truly heroic spirit that 172
truly humble before god 113
truly looked before and 61
truly lovely without this 52
truly neither speech nor 88
truly offers something for 75
trunk fierce storms can 114
trunk muscle strength and 251
trust another person and 49
trust another person with 122
trust anyone unless you 101
trust assets should not 43
trust created before that 85
trust created solely for 159
trust estate created for 75
trust estate should not 159
trust hereby created and 106
trust myself amongst them 47
trust myself around you 87
trust myself further with 48
trust without violating that 131
truths clearly implying that 46
tubes become coated with 113
tubes become filled with 270
tubes little bigger than 43
tubes partly filled with 224
tumor marker levels are 50
tumor volume greater than 98
turning around archer saw 77
turning around slowly and 43
turning itself around and 41
turning itself inside out 2109
turning myself inside out 617
turning partly toward him 68
turning slowly around and 150
turning slowly toward her 57
turning slowly toward him 76
turning without quitting his 115
turns around slowly and 158
turns bright yellow and 93
turns carbon dioxide and 55
turns itself around and 94
turns itself inside out 1748
turns slowly around and 46
turns toward itself and 96
tweed shooting jacket and 121
tweed sports jacket and 801
tweed sports jacket that 41
tweed sports jacket with 213
twice before assuming that 108
twice before carrying out 67
twice before crossing him 46
twice before deciding that 155
twice before realizing that 174
twice before starting any 54
twice before stepping out 45
twice walked through that 90
typed double spaced and 121
typed double spaced with 297