labor leaders argued that the 42
labor market policy and the 101
labor market policy can be 47
labor market should not be 74
lamps alight through all the 62
lands should remain with the 116
large building standing near the 68
large cities should not be 50
large corral fitted for the 49
large crowds turned out to 184
large enough market for the 129
large enough sample can be 41
large enough sample for the 80
large estate owners and the 73
large extent depend for the 53
large extent linked with the 40
large extent passed out of 53
large formal meetings sit on 48
large muscle groups and is 60
large muscle groups and the 48
large muscle groups for an 53
large muscle groups may be 40
large public sector and the 84
large silver buckle with the 46
large silver dollar and the 78
large standing armies and the 60
large standing armies for the 43
large window looked out on 73
later allied itself with the 129
later became famous for the 173
later became merged with the 52
later became obvious that the 82
later became united with the 41
later become famous for the 52
later events proved that he 79
later events proved that it 74
later events proved that the 168
later events showed that he 49
later events showed that it 48
later events showed that the 333
later joined forces with the 363
later report stated that the 47
leader should ensure that the 114
league itself openly with the 43
leaves become yellow and the 44
leaves little chance for the 158
leaves little choice but to 219
leaves little energy for the 87
leaves turned yellow and the 48
legal advice before doing so 52
legal advice should not be 57
legal opinion formed and the 117
legal reasoning should not be 59
legal rights should not be 96
legal status should not be 45
legal system itself and the 47
legal system should not be 187
legal tender except for the 47
legal tender should not be 44
lends itself better than the 92
letting sicily escape out of 75
level almost double that of 55
level career options can be 56
level little higher than the 60
level without regard for the 42
light another candle with the 46
light breeze played with the 70
light lifted itself out of 62
light passes through and is 111
light passes through and the 65
light passes through both the 93
light passes through one of 231
light passes through them in 125
light shines through all the 67
light source should not be 111
light summer clouds out of 263
light supper before going to 63
light without shadow and no 53
lines already marked out by 94
lines already marked out in 83
lines without regard for the 56
lived before albert can be 57
lived little better than the 104
liver disease should not be 123
liver enzyme levels may be 70
liver tumors treated with mr 171
local bodies should not be 133
local church should not be 48
local parish church and the 43
local parish priest and the 51
local police forces and the 182
local police station and the 136
local police station for the 56
local public agency and the 65
local public bodies and the 97
local public bodies for the 73
local public entity and the 42
local public opinion and the 119
local public opinion and to 46
local public school and the 61
local school boards and in 47
local school boards and the 437
local school boards and to 80
local school boards for the 147
local school boards may be 48
local school boards with the 85
local school system and the 213
local school system for the 42
local school system may be 45
local tissue damage and the 47
longer simply assume that the 40
loose strand behind her ear 50
loses carbon dioxide and is 124
loved eleanor better than he 58
lover stamps around and is 63
lower atomic number than the 72
lower atomic weight than the 46
lower courts agreed with the 62
lower courts should not be 46
lower cranial nerves and the 112
lower cranial nerves can be 75
lower cranial nerves may be 101
lower energy levels than the 72
lower energy states with the 122
lower fraser valley and the 41
lower freezing points than the 40
lower income groups and in 75
lower income groups and the 424
lower income groups and to 134
lower income groups can be 83
lower income groups for the 43
lower income groups may be 116
lower income groups than in 108
lower income groups than on 57
lower income groups than the 58
lower income levels and the 55
lower income levels than at 83
lower income levels than the 141
lower jordan valley and on 74
lower jordan valley and the 81
lower levels should not be 194
lower oxygen tension than the 58
lower prices abroad than at 286
lower profit margin than the 48
lower public esteem for the 62
lower stress levels than the 87
lower yangtze valley and the 104
lymph passes through one or 61