ice and aerated waters 62
ice and carbon dioxide 225
ice and floating debris 83
ice and frozen carbon 110
ice and frozen ground 640
ice and looked through 189
ice and roller skates 127
ice and virgin forest 53
ice and winter storms 42
ice being deeply hacked 51
ice being fairly broken 50
ice had already broken 52
ice had already formed 161
ice had already melted 111
ice had already passed 53
ice had closed around 59
ice had formed across 47
ice had formed around 592
ice had formed inside 101
ice had melted enough 60
ice has already formed 61
ice was already broken 78
ice was fairly broken 148
ice was forced through 54
ice was packed around 86
ice was packed heavily 44
icy and bright dungeons 109
idea and decide whether 55
idea and readily agreed 40
idea and recent findings 58
idea and thought appears 41
idea can realize itself 97
idea for obvious reasons 65
idea for various reasons 111
idea had already become 100
idea had already formed 43
idea had always seemed 44
idea had become almost 67
idea had become firmly 107
idea had fallen through 51
idea had formed itself 60
idea had gained ground 496
idea had little chance 57
idea had passed through 148
idea has already become 67
idea has always seemed 93
idea has become almost 91
idea has become firmly 68
idea has become widely 94
idea has gained ground 1214
idea has gained strength 44
idea has gotten abroad 53
idea has gotten around 98
idea has little chance 55
idea has passed through 212
idea has proved itself 57
idea has proved useful 41
idea that actors should 62
idea that adults should 95
idea that africa should 41
idea that already exists 53
idea that another person 261
idea that anyone except 52
idea that anyone should 858
idea that atomic energy 45
idea that atomic weapons 53
idea that austria should 60
idea that blacks should 376
idea that canada should 162
idea that carbon dioxide 89
idea that chance begets 72
idea that christ should 99
idea that cities should 70
idea that courts should 270
idea that dental caries 48
idea that eastern europe 50
idea that england should 219
idea that english should 99
idea that europe should 158
idea that family planning 179
idea that fathers should 85
idea that female sexual 46
idea that fiction should 64
idea that fiscal policy 91
idea that forced itself 48
idea that forces itself 91
idea that france should 300
idea that french canada 44
idea that future events 60
idea that gained strength 54
idea that greatly appeals 108
idea that harold should 47
idea that higher levels 167
idea that higher prices 47
idea that humans should 259
idea that income should 87
idea that indians should 158
idea that judges should 361
idea that leaders should 69
idea that manual training 62
idea that market forces 227
idea that market prices 68
idea that matter exists 42
idea that matter itself 51
idea that member states 59
idea that memory traces 121
idea that mental disease 93
idea that mental events 139
idea that mental images 68
idea that mental models 52
idea that mental states 485
idea that mexico should 74
idea that modern humans 90
idea that mothers should 214
idea that nations should 209
idea that native peoples 59
idea that nature abhors 100
idea that nature exists 94
idea that nature itself 186
idea that nature should 150
idea that negroes should 105
idea that newman should 43
idea that nobody should 70
idea that nuclear energy 62
idea that nuclear weapons 505
idea that nurses should 59
idea that offers itself 47
idea that painting should 93
idea that passed through 114
idea that passes through 147
idea that planning should 105
idea that police should 47
idea that policy makers 67
idea that policy should 94
idea that prices should 137
idea that public office 142
idea that public opinion 445
idea that public policy 265
idea that public sector 95
idea that pupils should 145
idea that quebec should 49
idea that radiant energy 83
idea that reality itself 63
idea that relief should 47
idea that rights should 72
idea that rulers should 73
idea that school should 70
idea that sexual desire 200
idea that sexual feelings 46
idea that slaves should 41
idea that someone should 264
idea that someone thought 74
idea that someone wanted 83
idea that something called 155
idea that something exists 80
idea that something serious 79
idea that something should 288
idea that something special 49
idea that something strange 53
idea that speech sounds 41
idea that stands behind 82
idea that states should 300
idea that supply creates 91
idea that theology should 50
idea that theories should 58
idea that therapy should 62
idea that turkey should 48
idea that united states 121
idea that values should 131
idea that visual images 44
idea that voters should 48
idea was clearly stated 98
idea was clever enough 43
idea was common enough 58
idea was deeply rooted 135
idea was eagerly caught 53
idea was eagerly seized 101
idea was fairly simple 56
idea was firmly rooted 76
idea was floating around 53
idea was kicked around 52
idea was pretty simple 44
idea was simple enough 1515
idea was simply absurd 78
idea was tossed around 41
idea was widely shared 55
idea why anyone should 83
ill and inward sorrow 50
ill and needed someone 68
ill and needed special 49
ill and seemed likely 113
ill and stayed behind 119
ill and vicious habits 135
ill men belongs wholly 66
ill that another dances 110
ill that should happen 40
ill with another disease 82
ill with german measles 123
ill with kidney disease 407
ill with kidney stones 159
ill with ovarian cancer 54
ill with severe diarrhea 65
ingoing and outgoing streams 122
ink and pencil drawings 335
ink and pencil points 100
inn and livery stable 95
inn has graver duties 52
int and double values 76
ions and carbon dioxide 373
ions and reducing agents 62
ions are almost always 114
ions are called cations 718
ions are driven through 73
ions are driven toward 45
ions are formed through 67
ions are highly mobile 105
ions are passed through 205
ions are pumped across 119
ions are readily formed 79
ions are reducing agents 49
ions has little effect 49
ions per second through 62
ions with atomic number 49
ions with charge states 140
ions with closed shells 263
ions with higher charge 96
ions with nuclear charge 194
ions with partly filled 57
its aging course teaches 62
its aid policy toward 70
its aim poised justly 67
its air supply through 93
its air without becoming 51
its being almost always 50
its being almost wholly 69
its being already formed 100
its being bitten through 49
its being broken through 45
its being called before 50
its being called petite 44
its being changed without 421
its being firmly rooted 92
its being forced through 103
its being opened without 263
its being passed through 176
its being passed without 64
its being placed before 178
its being pulled through 202
its being pushed through 61
its being safely vested 176
its being thought proper 57
its being wrongly stated 43
its end without further 40
its eye glancing wildly 45
its far eastern allies 43
its far eastern empire 81
its far eastern forces 74
its far eastern policy 664
its far eastern regions 60
its head almost touching 95
its head office abroad 128
its head office building 154
its head pointing toward 153
its head pointing upward 55
its head turned around 71
its head turned toward 513
its head turned upward 43
its heat passes through 150
its law should govern 66
its long common border 47
its long convex border 41
its long course across 61
its long course through 434
its long flight across 49
its long shadow across 209
its long silken lashes 92
its long standing policy 140
its long summer recess 119
its long voyage across 130
its long voyage around 43
its long voyage through 87
its long winter nights 81
its long wooden bridge 45
its long wooden handle 113
its long wooden tables 59
its low atomic number 227
its low atomic weight 244
its low impact strength 55
its low income levels 50
its low profit margin 65
its low starting torque 154
its mad career through 193
its near eastern policy 80
its neat little church 42
its neat little garden 47
its neat little wicket 95
its net annual income 142
its net annual profit 48
its net carrying amount 173
its net income before 234
its net income should 62
its net liquid assets 77
its net profit before 76
its net profit margin 335
its net widely enough 40
its new aspect showed 42
its new church building 354
its new course through 62
its new england origin 49
its new jersey office 50
its new managing editor 46
its new member states 211
its new office building 517
its new orleans office 51
its new panels reecho 88
its new policy toward 162
its new school building 115
its new subway system 45
its new target market 41
its now famous report 66
its old bugbear chorus 43
its old course through 63
its old danish rights 56
its old english dialect 40
its old fighting spirit 60
its old gabled houses 85
its old mortal frames 99
its old narrow pathway 120
its old parish church 45
its old ruined castle 45
its old stamping ground 48
its old wooden houses 122
its one chance without 45
its one little window 45
its one narrow window 57
its one serious defect 44
its one window looked 49
its own access rights 68
its own accord across 78
its own accord anyway 55
its own accord around 42
its own accord become 105
its own accord before 929
its own accord occupy 94
its own accord prompt 170
its own accord return 103
its own accord should 59
its own accord tended 131
its own accord through 430
its own accord toward 169
its own accord turned 122
its own accord unless 177
its own accord whether 66
its own accord without 1248
its own actions affect 40
its own actions through 72
its own active energy 82
its own active nature 55
its own actual reality 60
its own agenda through 76
its own agenda without 110
its own agents abroad 48
its own agents instead 41
its own animal nature 58
its own annual budget 243
its own annual meetings 41
its own annual report 495
its own atomic device 67
its own atomic energy 203
its own atomic number 131
its own atomic weapons 540
its own atomic weight 107
its own august weight 81
its own avenger breeds 425
its own behalf before 51
its own behalf through 58
its own behalf without 65
its own belief system 401
its own bodily organs 94
its own branch office 134
its own bridge across 86
its own budget office 64
its own budget without 88
its own building across 74
its own building blocks 106
its own carbon dioxide 117
its own career ladder 54
its own causal powers 70
its own choice without 55
its own choosing without 195
its own chosen course 52
its own chosen ground 358
its own chosen leaders 58
its own chosen sphere 59
its own church building 741
its own church versus 57
its own circle around 43
its own clearly marked 54
its own clearly stated 49
its own client states 66
its own closed circle 87
its own closed system 207
its own combat forces 129
its own combat troops 95
its own common market 75
its own common shares 328
its own course across 50
its own course through 347
its own course toward 162
its own course without 928
its own courts except 48
its own courts without 347
its own credit policy 66
its own credit standing 401
its own credit system 67
its own deeper nature 46
its own deeply rooted 118
its own demand through 71
its own demise through 112
its own device driver 156
its own diesel engines 69
its own dipole moment 41
its own direct access 139
its own direct agency 69
its own direct effect 120
its own direct impact 43
its own direct object 155
its own direct source 46
its own divine energy 44
its own divine mission 159
its own divine nature 313
its own divine origin 441
its own divine source 55
its own divine spirit 50
its own domain without 50
its own duties without 58
its own earlier stages 64
its own effect without 104
its own energy crisis 49
its own energy policy 100
its own energy source 293
its own energy stores 44
its own energy supply 356
its own energy system 46
its own energy through 84
its own equity shares 139
its own ethical issues 47
its own ethical system 96
its own ethical values 69
its own expert system 41
its own export market 48
its own export prices 49
its own family circle 80
its own family planning 133
its own famous school 59
its own fashion through 45
its own fashion without 49
its own feudal system 67
its own fierce energy 69
its own fierce strength 139
its own fighting forces 122
its own figure turned 106
its own finite nature 123
its own fiscal crisis 93
its own fiscal policy 337
its own fiscal system 204
its own floating window 56
its own flower garden 70
its own forces without 65
its own formal nature 66
its own formal object 163
its own former person 40
its own founding fathers 73
its own freely chosen 112
its own future actions 88
its own future course 187
its own future income 100
its own future policy 78
its own future states 148
its own future status 81
its own future strength 50
its own future through 159
its own future without 206
its own garden behind 41
its own gentle feelings 48
its own global policy 47
its own golden person 56
its own ground forces 483
its own ground station 73
its own ground through 45
its own ground troops 96
its own ground without 67
its own hidden agenda 134
its own higher nature 133
its own higher reality 44
its own higher sphere 49
its own higher spirit 103
its own immune system 671
its own import duties 117
its own inbred wishes 52
its own income through 61
its own indexing system 60
its own indoor swimming 127
its own initial excess 52
its own inmost nature 169
its own innate energy 60
its own innate nature 102
its own innate powers 172
its own innate strength 192
its own innate virtue 73
its own inward energy 98
its own inward nature 174
its own inward notions 47
its own lagged values 648
its own latent powers 69
its own lawful claims 46
its own liaison office 57
its own lighting system 149
its own limits should 48
its own limits through 75
its own limits without 64
its own little battle 82
its own little brains 44
its own little bridge 45
its own little chapel 63
its own little church 166
its own little circle 281
its own little colony 48
its own little corner 264
its own little domain 167
its own little empire 64
its own little family 46
its own little forest 43
its own little garden 705
its own little groove 44
its own little island 776
its own little market 96
its own little museum 48
its own little pocket 63
its own little quirks 129
its own little scheme 70
its own little school 64
its own little section 77
its own little shrine 69
its own little sphere 155
its own little spiral 316
its own little square 173
its own little system 68
its own little valley 137
its own little window 176
its own little wooden 54
its own lobbying effort 42
its own london office 69
its own lovely sphere 49
its own mature strength 53
its own member states 820
its own memory buffer 53
its own memory system 70
its own mental images 87
its own mental states 434
its own merits before 271
its own merits fairly 98
its own merits instead 54
its own merits purely 41
its own merits solely 84
its own merits through 47
its own merits without 1206
its own middle eastern 96
its own mighty claims 286
its own modern building 85
its own modest sphere 56
its own motive forces 123
its own muscle tissue 205
its own narrow bounds 128
its own narrow circle 362
its own narrow domain 48
its own narrow limits 392
its own narrow little 41
its own narrow sphere 158
its own native charms 50
its own native clergy 85
its own native energy 108
its own native forces 50
its own native format 139
its own native genius 154
its own native ground 52
its own native haunts 46
its own native pastor 44
its own native peoples 41
its own native policy 55
its own native powers 173
its own native purity 89
its own native rulers 92
its own native strength 195
its own native talent 40
its own nature absurd 63
its own nature admits 64
its own nature always 188
its own nature before 90
its own nature belongs 96
its own nature beyond 49
its own nature common 42
its own nature divine 73
its own nature engaged 51
its own nature greater 91
its own nature little 139
its own nature merely 181
its own nature mortal 446
its own nature neither 111
its own nature proper 44
its own nature should 99
its own nature sinful 198
its own nature something 86
its own nature through 509
its own nature toward 60
its own nature unjust 84
its own nature unless 44
its own nature useful 67
its own nature vicious 89
its own nature without 498
its own normal school 89
its own normal values 255
its own nuclear device 187
its own nuclear energy 75
its own nuclear forces 463
its own nuclear plants 44
its own nuclear policy 48
its own nuclear reactor 108
its own nuclear strength 41
its own nuclear strike 69
its own nuclear striking 69
its own nuclear weapons 4493
its own object through 71
its own object without 48
its own obvious merits 41
its own office bearers 71
its own office building 1046
its own opinion leaders 85
its own output signal 80
its own oxygen supply 792
its own parade ground 172
its own parish church 294
its own parish priest 117
its own patent office 61
its own patent rights 47
its own patent system 93
its own pathway through 40
its own patron saints 59
its own pension scheme 116
its own pension system 92
its own pocket seemed 149
its own police forces 555
its own police powers 46
its own police station 214
its own police system 78
its own policy actions 45
its own policy agenda 301
its own policy choice 57
its own policy options 45
its own policy through 43
its own policy toward 362
its own policy without 233
its own postal system 379
its own powers before 87
its own powers better 44
its own powers through 58
its own powers without 101
its own pretty garden 60
its own prices without 49
its own printing office 185
its own prison system 127
its own profit center 137
its own profit margin 101
its own proper acorns 63
its own proper bounds 129
its own proper claret 87
its own proper course 174
its own proper degree 72
its own proper domain 620
its own proper duties 184
its own proper effect 391
its own proper energy 61
its own proper entity 50
its own proper fashion 40
its own proper forces 158
its own proper ground 599
its own proper limits 644
its own proper manner 82
its own proper matter 135
its own proper measure 90
its own proper medium 121
its own proper merits 263
its own proper methods 196
its own proper mission 57
its own proper motions 78
its own proper nature 2254
its own proper notions 52
its own proper object 1280
its own proper office 50
its own proper person 137
its own proper portion 43
its own proper powers 218
its own proper reality 142
its own proper regions 53
its own proper reward 45
its own proper rights 55
its own proper source 63
its own proper sphere 2924
its own proper spirit 151
its own proper states 48
its own proper strength 326
its own proper system 72
its own proper tinsel 49
its own proper virtue 309
its own proper weight 141
its own public domain 94
its own public opinion 796
its own public policy 561
its own public school 243
its own public sector 125
its own public sphere 114
its own puppet regime 66
its own random number 160
its own reality through 137
its own reasoning powers 95
its own reform agenda 133
its own release through 79
its own retail outlet 122
its own retail prices 54
its own retail stores 789
its own reward system 86
its own rights should 171
its own rights without 49
its own ripple effect 48
its own rocket engines 55
its own sacred animal 51
its own sacred events 96
its own sacred places 75
its own sacred writings 95
its own safety record 42
its own safety teaches 45
its own safety through 52
its own safety valves 44
its own salary scales 147
its own school building 265
its own school system 1631
its own secret agents 104
its own secret police 199
its own secret recipe 68
its own secret symbol 87
its own septic system 71
its own sewage system 64
its own shadow through 93
its own shared memory 49
its own shares except 173
its own shares should 52
its own shares through 106
its own shares unless 187
its own shares without 166
its own shines through 272
its own shipping office 69
its own shopping arcade 68
its own shopping center 291
its own simple nature 69
its own simple strength 54
its own slight strength 64
its own special agents 64
its own special allure 46
its own special aspect 79
its own special branch 224
its own special brands 40
its own special budget 62
its own special building 85
its own special causes 114
its own special charms 111
its own special circle 81
its own special claims 116
its own special colors 77
its own special corner 55
its own special course 79
its own special dangers 266
its own special degree 46
its own special design 215
its own special dialect 49
its own special dishes 100
its own special domain 272
its own special duties 238
its own special effect 316
its own special energy 64
its own special enzyme 45
its own special ethical 41
its own special events 58
its own special fashion 85
its own special feature 175
its own special fields 52
its own special flavor 580
its own special flower 93
its own special forces 223
its own special format 93
its own special genius 183
its own special ground 125
its own special habits 44
its own special handling 105
its own special impact 86
its own special injury 44
its own special insect 43
its own special issues 97
its own special jargon 115
its own special lesson 50
its own special libido 63
its own special lighting 51
its own special lights 67
its own special little 186
its own special manner 264
its own special market 63
its own special memory 96
its own special merits 297
its own special methods 529
its own special mission 289
its own special nature 624
its own special nuance 48
its own special number 86
its own special object 272
its own special office 94
its own special organs 70
its own special patron 47
its own special places 42
its own special points 127
its own special police 90
its own special policy 41
its own special portion 84
its own special powers 178
its own special public 75
its own special quirks 40
its own special reality 137
its own special reasons 237
its own special recess 43
its own special recipe 74
its own special reward 73
its own special rights 186
its own special ritual 73
its own special scheme 87
its own special school 89
its own special secret 88
its own special section 146
its own special series 55
its own special signal 44
its own special skills 213
its own special sounds 44
its own special source 82
its own special sphere 444
its own special spirit 97
its own special status 319
its own special strength 62
its own special symbol 128
its own special syntax 53
its own special system 272
its own special tastes 42
its own special terror 47
its own special thought 107
its own special training 129
its own special traits 108
its own special usages 73
its own special values 200
its own special version 203
its own special virtue 168
its own special weight 41
its own speedy limits 64
its own sphere through 107
its own sphere without 261
its own sports ground 117
its own stance toward 43
its own standing orders 670
its own starting points 111
its own stated policy 140
its own status system 85
its own stigma without 85
its own stored energy 88
its own strange charms 124
its own street lighting 107
its own strength solely 44
its own strength through 43
its own strength without 167
its own strict limits 79
its own subway station 62
its own subway system 49
its own sunday school 282
its own supply system 213
its own symbol system 115
its own system called 61
its own system design 53
its own system through 51
its own system without 91
its own target market 241
its own tariff duties 41
its own tariff levels 42
its own tariff policy 177
its own tariff system 184
its own teacher training 227
its own temple belongs 95
its own tennis courts 463
its own thermal energy 73
its own ticket office 43
its own training center 190
its own training course 79
its own training ground 45
its own training manual 96
its own training methods 41
its own training scheme 77
its own training school 608
its own training system 76
its own travel agency 174
its own unique agenda 49
its own unique assets 101
its own unique atomic 53
its own unique causes 51
its own unique course 156
its own unique demand 59
its own unique design 378
its own unique dialect 44
its own unique domain 84
its own unique effect 142
its own unique energy 188
its own unique ethical 50
its own unique family 59
its own unique fashion 315
its own unique feature 74
its own unique flavor 650
its own unique format 209
its own unique genius 50
its own unique impact 79
its own unique issues 185
its own unique manner 329
its own unique market 126
its own unique memory 52
its own unique merits 71
its own unique methods 259
its own unique mission 161
its own unique nature 272
its own unique number 461
its own unique object 113
its own unique origin 64
its own unique pathway 43
its own unique powers 61
its own unique reality 84
its own unique reasons 51
its own unique rhythms 40
its own unique script 50
its own unique series 52
its own unique settings 68
its own unique signal 99
its own unique skills 46
its own unique sounds 61
its own unique source 46
its own unique spatial 66
its own unique sphere 53
its own unique spirit 138
its own unique status 138
its own unique strength 43
its own unique styles 46
its own unique symbol 105
its own unique syntax 90
its own unique system 624
its own unique timbre 57
its own unique traits 163
its own unique twists 49
its own unique values 292
its own unique version 258
its own unique visual 65
its own unique wisdom 55
its own united nations 61
its own united states 363
its own upward ascent 63
its own urgent claims 41
its own vacuum system 55
its own values through 73
its own values without 52
its own version called 73
its own version number 102
its own vicious circle 219
its own walled garden 198
its own weight across 60
its own weight before 374
its own weight behind 83
its own weight caused 83
its own weight causes 311
its own weight forced 202
its own weight forces 225
its own weight should 106
its own weight through 445
its own weight toward 51
its own weight unless 256
its own weight vector 53
its own weight wearied 129
its own weight wearies 64
its own weight without 747
its own wishes without 81
its own without courting 41
its own without further 394
its own without regard 146
its path passes through 47
its path through matter 49
its path toward becoming 48
its peak effect occurs 56
its real estate agents 44
its real estate assets 304
its real estate holdings 892
its real estate market 172
its real estate prices 43
its real estate section 70
its real estate values 161
its real income through 77
its real nature became 49
its rear wheels spinning 83
its red coloring matter 44
its red lights blinking 76
its red lights flashing 359
its red velvet cushion 61
its six member nations 43
its six member states 240
its tax exempt status 1748
its ten member states 48
its then existing limits 147
its tip almost touching 57
its tip pointing toward 99
its tip pointing upward 55
its too potent vassal 70
its top pointing toward 49
its two flanking towers 207
its two former owners 163
its two founding peoples 64
its two larger rivals 103
its two limiting values 44
its two million square 54
its two nearest rivals 103
its two patron saints 133
its two square towers 131
its two stable states 359
its two united states 84
its use almost always 49
its use became almost 54
its use became common 189
its use before public 81
its use should always 264
its use should become 96
its use should result 58
its use varies greatly 50
its use varies widely 81
its use without further 52
its use without regard 40
its war effort through 58
its way across africa 43
its way across canada 55
its way across europe 512
its way across fields 40
its way across france 145
its way across london 70
its way across siberia 74
its way almost without 53
its way around inside 43
its way around london 40
its way around through 57
its way boldly through 71
its way deeply through 62
its way deftly through 50
its way freely through 71
its way gently through 73
its way gingerly through 83
its way heavily through 77
its way inland through 123
its way inside through 65
its way inward through 55
its way lazily through 66
its way onward through 88
its way partly through 72
its way passes through 42
its way safely across 51
its way safely through 174
its way seaward through 48
its way slowly across 767
its way slowly around 297
its way slowly through 2833
its way slowly toward 576
its way slowly upward 97
its way through almost 287
its way through amongst 217
its way through another 883
its way through before 82
its way through broken 139
its way through chinks 69
its way through clouds 100
its way through cracks 531
its way through crowds 126
its way through eastern 46
its way through england 67
its way through english 40
its way through europe 407
its way through existing 72
its way through fields 178
its way through floating 103
its way through forest 231
its way through france 191
its way through german 157
its way through gorges 86
its way through groves 81
its way through heavily 83
its way through hungary 54
its way through joints 56
its way through layers 209
its way through little 92
its way through london 183
its way through masses 85
its way through matter 121
its way through meadows 92
its way through mighty 53
its way through minute 43
its way through modern 99
its way through narrow 660
its way through nature 44
its way through openings 71
its way through opposing 42
its way through poland 58
its way through reality 45
its way through rugged 97
its way through siberia 50
its way through silent 96
its way through something 40
its way through stands 44
its way through swamps 74
its way through tangled 67
its way through twenty 71
its way through various 634
its way through virgin 57
its way through without 138
its way through wooded 143
its way toward another 96
its way toward becoming 1378
its way toward greater 61
its way toward something 62
its way uphill through 71
its way upward through 2631
its way upward toward 228
its way without further 180
its way without regard 127
its way without serious 49
its way without stopping 87
its weak treble broken 72
ivy and carrying dripping 82
ivy and climbing plants 93
ivy and creeping plants 708
ivy and creeping shrubs 56
ivy and trailing plants 269
ivy had rooted itself 53