ice cream before dinner 385
ice cream before freezing 118
ice cream parlor across 121
ice cream parlor before 40
ice cream parlor called 136
ice cream parlor chairs 284
ice cream parlor inside 44
ice cream parlor tables 87
ice cream tasted better 47
ice cream tastes better 325
ice during glacial periods 66
ice fell through bodily 139
ice from staten island 117
icy wind howled through 45
icy wind passed through 41
idea also gained ground 41
idea ever weakens itself 74
idea from another person 56
idea from another source 101
idea made little headway 108
idea more readily recall 174
idea some serious thought 110
idea what should happen 51
idea what virtue itself 40
idea will become clearer 178
idea will infect another 50
idea wore itself deeper 63
ill bent rarely repent 42
ill seen unless through 53
ill will toward another 275
ill will toward anyone 325
ill will toward blacks 62
ill will toward someone 55
ink when something strange 48
ions form silver specks 60
ions from carbon dioxide 55
ions from dilute aqueous 154
ions have closed shells 76
ions have enough energy 67
ions have little effect 82
ions have passed through 63
ions into cardiac muscle 46
ions move freely across 41
ions move freely through 40
ions pass freely through 43
its angry course through 69
its apex pointing toward 226
its apex pointing upward 128
its arms export policy 47
its arms folded across 74
its arms locked around 47
its axis always pointing 58
its axis always points 128
its axis passes through 243
its axis pointing toward 81
its axis points toward 41
its back turned toward 248
its bare wooden floors 45
its base turned toward 40
its base turned upward 55
its best lights whether 85
its blue lights flashing 198
its body unless through 40
its body weight before 56
its body weight without 88
its book review editor 44
its book review section 202
its brim appearing beyond 61
its clear placid waters 52
its clear waters through 70
its dank yellow drifts 125
its dark glossy foliage 50
its dark shadow across 254
its dark shadow before 139
its dark waters closed 64
its deep signal through 65
its dual school system 217
its dull flavor through 40
its duty toward europe 53
its early design stages 47
its early planning stages 384
its early stages appears 68
its early stages before 490
its early stages cancer 56
its early stages passed 85
its early stages seemed 43
its early stages should 162
its early stages through 188
its early stages without 142
its edge passes through 287
its edge turned toward 42
its eggs without flight 62
its eyes almost closed 53
its eyes barely opened 43
its eyes turned toward 165
its eyes turned upward 81
its face before hitler 44
its face seemed broken 40
its face turned toward 538
its face turned upward 56
its fair chance before 55
its fair market rental 47
its feet always firmly 49
its feet without severe 43
its fifth annual report 538
its fifth annual review 103
its fifth annual session 73
its fine parish church 41
its food supply through 61
its form varies greatly 55
its form without appearing 49
its four bronze horses 52
its four corner points 93
its four corner towers 448
its four square towers 77
its free course through 44
its free market system 40
its free public school 61
its free school system 66
its free speech rights 167
its full course before 196
its full course through 59
its full course without 171
its full effect before 156
its full effect through 69
its full effect unless 238
its full effect without 256
its full extent became 55
its full extent before 549
its full extent behind 106
its full extent through 65
its full extent without 297
its full fighting strength 122
its full height before 195
its full height without 62
its full nature points 55
its full powers without 40
its full reality without 42
its full spatial reality 50
its full strength before 96
its full strength behind 63
its full strength should 87
its full strength without 130
its full weight behind 1467
its full weight without 53
its good credit standing 108
its good safety record 58
its gram atomic weight 107
its gray norman church 51
its great funnel emitting 54
its great height seemed 56
its great mission unless 51
its great object should 91
its great public school 41
its great sweeping boughs 65
its great weight caused 50
its half should elapse 44
its having already reached 54
its having always fallen 49
its having passed through 477
its high atomic number 420
its high atomic weight 206
its high carbon dioxide 56
its high dipole moment 98
its high impact strength 102
its high octane number 67
its high points nodded 147
its high profit margin 67
its high school pupils 223
its high school seniors 127
its high school system 49
its high seventh circle 64
its high starting torque 257
its high tariff policy 97
its home market without 42
its home office building 250
its huge barrel canted 54
its jingling sounds through 49
its kind stands almost 41
its land reform policy 135
its land tenure system 187
its last annual report 941
its last annual session 129
its last combat mission 45
its last expiring effort 73
its last feeble effort 79
its last session before 149
its last session passed 151
its last stages before 45
its last station before 41
its leading member states 92
its least alarming feature 53
its legs trailing behind 45
its length without dismay 67
its length without stopping 83
its life crawling around 150
its limp flapping bonnet 46
its loss through disuse 53
its main building blocks 75
its main course through 53
its main effort toward 70
its main energy source 279
its main export market 187
its main object should 115
its main office building 76
its main points before 46
its main points should 64
its main shopping street 282
its many church spires 68
its meaning should become 43
its meaning through various 44
its meaning varies widely 78
its mere animal nature 54
its more active duties 81
its more active phases 85
its more common causes 64
its more common cousin 109
its more direct effect 72
its more direct impact 53
its more distal portion 58
its more famous brother 51
its more famous cousin 232
its more famous rivals 49
its more famous sister 321
its more florid charms 185
its more formal aspect 93
its more lavish smiles 81
its more mature stages 110
its more modern aspect 51
its more modern variant 42
its more modern version 186
its more obvious abuses 55
its more obvious aspect 80
its more obvious causes 44
its more obvious phases 60
its more public aspect 59
its more recent aspect 133
its more recent cousin 40
its more recent origin 149
its more recent phases 125
its more recent policy 72
its more recent stages 66
its more recent variant 86
its more recent version 189
its more remote causes 48
its more remote origin 62
its more remote regions 67
its more robust brother 46
its more serious aspect 161
its more serious impact 79
its more serious nature 40
its more serious phases 65
its more severe stages 47
its more stable isomer 47
its more striking points 40
its more subtle windings 188
its more urgent duties 51
its more violent phases 76
its most active agents 158
its most active leaders 472
its most active member 1295
its most active periods 121
its most active phases 93
its most active portion 68
its most active stages 60
its most active worker 61
its most alarming aspect 52
its most alluring aspect 65
its most alluring feature 58
its most amiable aspect 45
its most appealing aspect 75
its most appealing feature 171
its most ardent leaders 41
its most benign aspect 51
its most bitter critic 41
its most caudal portion 70
its most charming aspect 83
its most charming feature 81
its most cheering aspect 44
its most common aspect 48
its most common causes 323
its most common course 41
its most common english 192
its most common exciting 51
its most common feature 71
its most common import 42
its most common modern 90
its most common origin 45
its most common source 153
its most common variant 52
its most common version 150
its most crucial aspect 118
its most crucial feature 60
its most crucial moment 101
its most crucial periods 64
its most crucial phases 46
its most crucial points 109
its most crucial stages 84
its most curious feature 124
its most damaging effect 109
its most deeply hidden 48
its most deeply rooted 202
its most defining feature 93
its most direct effect 200
its most direct impact 301
its most dismal height 74
its most distal portion 113
its most enduring effect 50
its most enduring feature 40
its most enduring impact 61
its most enduring legacy 571
its most enduring symbol 43
its most ethereal charms 93
its most exciting feature 47
its most exciting moment 59
its most exciting periods 43
its most famous alumni 89
its most famous artist 52
its most famous authors 66
its most famous battle 47
its most famous building 169
its most famous cities 58
its most famous critic 48
its most famous editor 91
its most famous export 108
its most famous feature 193
its most famous figure 193
its most famous former 156
its most famous guests 46
its most famous inmate 71
its most famous leaders 125
its most famous master 41
its most famous member 1588
its most famous modern 187
its most famous native 495
its most famous patron 48
its most famous phrase 49
its most famous pupils 50
its most famous recent 42
its most famous rulers 55
its most famous scenes 55
its most famous section 56
its most famous sights 52
its most famous slogan 45
its most famous street 52
its most famous symbol 49
its most famous teacher 95
its most famous tenant 46
its most famous version 98
its most famous victim 233
its most famous writer 101
its most fearful shapes 59
its most formal aspect 87
its most futile climax 54
its most gifted leaders 57
its most gifted member 90
its most gifted orator 83
its most hideous aspect 194
its most hideous shapes 101
its most highly placed 60
its most highly prized 338
its most highly valued 247
its most imposing aspect 163
its most imposing building 99
its most imposing feature 109
its most inviting aspect 43
its most inward feelings 42
its most likely course 77
its most likely effect 51
its most likely future 148
its most likely origin 73
its most likely source 302
its most liquid assets 218
its most marked degree 140
its most marked effect 355
its most marked feature 333
its most minute detail 427
its most modern aspect 114
its most modern version 58
its most modern weapons 43
its most obvious aspect 344
its most obvious causes 41
its most obvious defect 49
its most obvious duties 41
its most obvious effect 313
its most obvious faults 51
its most obvious feature 566
its most obvious impact 95
its most obvious result 105
its most obvious source 108
its most obvious target 54
its most obvious workings 52
its most potent effect 102
its most potent forces 50
its most potent source 57
its most potent symbol 194
its most potent topics 221
its most potent weapons 240
its most pressing dangers 41
its most pressing duties 45
its most pressing issues 81
its most prized assets 44
its most proper object 60
its most puzzling feature 46
its most recent actions 44
its most recent annual 2120
its most recent aspect 100
its most recent budget 51
its most recent census 49
its most recent changes 42
its most recent common 99
its most recent edition 463
its most recent editor 432
its most recent effort 75
its most recent english 58
its most recent findings 52
its most recent fiscal 3128
its most recent monthly 44
its most recent opinion 45
its most recent phases 172
its most recent policy 95
its most recent public 51
its most recent release 56
its most recent report 1030
its most recent return 107
its most recent review 90
its most recent session 150
its most recent stages 74
its most recent survey 258
its most recent trough 52
its most recent twelve 225
its most recent update 154
its most recent variant 84
its most recent version 727
its most recent victim 52
its most remote corner 52
its most remote reaches 123
its most remote regions 131
its most remote source 130
its most sacred aspect 45
its most sacred domain 49
its most sacred duties 291
its most sacred feelings 93
its most sacred mission 47
its most sacred places 65
its most sacred rights 2363
its most sacred shrine 85
its most sacred symbol 49
its most sacred tenets 42
its most sacred values 81
its most secret haunts 95
its most secret places 546
its most secret powers 80
its most secret thought 77
its most secret workings 97
its most serious aspect 331
its most serious crises 141
its most serious crisis 836
its most serious damage 85
its most serious dangers 71
its most serious defect 701
its most serious effect 210
its most serious effort 60
its most serious faults 46
its most serious feature 52
its most serious impact 137
its most serious injury 52
its most serious menace 42
its most serious result 51
its most severe crises 79
its most severe crisis 341
its most severe critic 124
its most severe degree 46
its most severe effect 85
its most severe impact 138
its most severe losses 41
its most severe stages 47
its most simple aspect 76
its most simple version 82
its most singular feature 103
its most solemn aspect 78
its most solemn moment 79
its most sordid aspect 57
its most stirring events 52
its most stirring scenes 157
its most striking aspect 499
its most striking effect 229
its most striking feature 4956
its most striking impact 62
its most striking points 199
its most striking proofs 61
its most striking result 114
its most striking scenes 107
its most striking traits 106
its most striking visual 59
its most touching aspect 61
its most tragic aspect 96
its most tragic events 47
its most trivial detail 42
its most unique aspect 44
its most unique feature 259
its most useful aspect 66
its most useful feature 162
its most valued assets 78
its most violent aspect 70
its most violent phases 41
its most violent stages 42
its mouth awhile before 51
its mouth beyond measure 136
its mouth passes through 53
its mouth without measure 106
its move toward becoming 43
its move toward greater 49
its moving shadow always 87
its much greater degree 43
its much greater extent 40
its much greater number 46
its much greater strength 71
its much greater weight 50
its much higher energy 45
its much larger cousin 52
its much larger number 76
its much larger volume 49
its nato allies should 60
its next annual report 462
its next annual session 418
its next session passed 105
its next session should 130
its nine member states 107
its nine retail stores 58
its ninth annual report 137
its ninth annual session 69
its nose almost touching 167
its nose pointing toward 69
its nose pointing upward 52
its once humble friend 47
its once mighty empire 51
its only actual effect 40
its only church became 51
its only energy source 73
its only female member 219
its only outlet through 57
its only proper object 67
its only serious rivals 70
its open market policy 253
its open market powers 46
its open source nature 66
its other member states 51
its poor safety record 93
its pore spaces filled 53
its post office closed 43
its prey before pouncing 41
its prow points toward 116
its rays passed through 42
its root system intact 52
its rule doubly secure 40
its sick driver hidden 50
its single drooping figure 130
its single window looked 63
its sixth annual report 240
its sixth annual session 67
its sixth special session 456
its size varies greatly 117
its size without altering 52
its slow course through 121
its soft tissue covering 167
its sole carbon source 262
its sole energy source 108
its sole record strange 40
its south africa policy 103
its south eastern corner 49
its stead another severe 41
its tail around itself 51
its tail coiled around 121
its tail curled around 327
its tail pointing toward 83
its tail turned toward 40
its tall ledges oppose 122
its tenth annual report 224
its tenth annual session 50
its tenth special session 327
its third annual report 940
its third annual session 160
its third german edition 59
its third person singular 228
its third special session 117
its three eastern tribes 51
its three member states 47
its three million square 96
its three square towers 41
its tone adapting itself 44
its trial before judges 48
its true answer clearly 73
its true atomic weight 77
its true colors before 49
its true course became 41
its true divine nature 63
its true initial causes 52
its true nature appears 60
its true nature became 80
its true nature behind 62
its true nature clearly 41
its true nature hidden 40
its true nature should 151
its true nature through 171
its true nature unless 52
its true nature without 123
its truth without further 40
its turn passed through 47
its turn passes through 41
its unit normal vector 135
its vast brooding shadow 56
its vast course across 54
its vast forest holdings 42
its vast public domain 55
its very faults pleased 64
its very initial stages 137
its very narrow limits 71
its very nature absurd 53
its very nature active 83
its very nature admits 155
its very nature allows 129
its very nature almost 124
its very nature already 57
its very nature always 556
its very nature appeals 93
its very nature appears 175
its very nature became 50
its very nature become 98
its very nature belongs 250
its very nature beyond 284
its very nature breeds 127
its very nature called 87
its very nature causes 317
its very nature changed 78
its very nature changes 190
its very nature claims 43
its very nature common 88
its very nature created 44
its very nature creates 327
its very nature defies 574
its very nature demand 103
its very nature denies 109
its very nature devoid 45
its very nature doomed 110
its very nature drives 42
its very nature eludes 84
its very nature exists 126
its very nature finite 165
its very nature forces 164
its very nature heavily 43
its very nature highly 400
its very nature likely 160
its very nature limits 187
its very nature merely 64
its very nature neither 133
its very nature occurs 41
its very nature offers 174
its very nature passes 42
its very nature placed 47
its very nature places 224
its very nature points 169
its very nature public 260
its very nature raises 89
its very nature reaches 40
its very nature refers 59
its very nature relies 44
its very nature remain 139
its very nature remote 114
its very nature reveals 61
its very nature sacred 72
its very nature secret 158
its very nature seemed 64
its very nature serves 43
its very nature should 456
its very nature something 437
its very nature stands 226
its very nature static 62
its very nature suited 53
its very nature tended 168
its very nature through 48
its very nature toward 65
its very nature unable 169
its very nature unique 92
its very nature unjust 125
its very nature utopian 88
its very nature wavering 69
its very nature without 91
its very public nature 104
its very recent origin 62
its very special nature 65
its very thought thrills 86
its very utmost limits 52
its wake untold misery 56
its width varies greatly 55
its wild career through 61
its wild whirling eddies 51
its will without regard 41
its wits before uttering 46
its work behind closed 76
its work mainly through 70
its work remain undone 48
its work through standing 74
its work through various 43
its work without further 70
its work without regard 52