ice eleven inches thick 45
ice hardly changed their 52
ice sheets covering much 70
ice sheets melted away 102
ice sheets reached their 119
ice slides behind their 83
ice streams draining into 53
idea before anyone else 133
idea forced itself upon 361
idea forces itself into 43
idea forces itself upon 231
idea gained ground among 74
idea merely glides over 48
idea should vanish from 61
idea slowly soaked into 85
idea whether anyone else 91
idea without entering into 44
ill desert arises from 71
ill family member from 43
ill family member will 41
ill feelings toward their 67
ill feelings toward those 47
ill mansion driven down 161
int public static void 1348
its active enzyme form 49
its actual effect during 42
its actual effect upon 298
its actual impact upon 133
its actual income from 88
its actual useful life 130
its agents relied upon 173
its agents should have 73
its agents unless such 160
its allies differ from 47
its allies should have 126
its almost entire lack 65
its almost shaggy depth 125
its almost twenty years 45
its amount varies from 103
its angular points from 47
its annual budget from 339
its annual exodus from 40
its annual flower show 133
its annual income from 557
its annual income will 55
its annual meetings during 47
its annual meetings from 97
its annual meetings have 100
its annual meetings there 41
its annual meetings were 230
its annual output from 73
its annual output will 61
its annual profit plan 50
its annual report made 277
its annual report said 51
its annual report upon 68
its annual session held 1161
its annual supply must 412
its answer little meaning 1494
its aspect became more 69
its assets turned over 48
its atomic number from 75
its atomic weight from 73
its atomic weight must 147
its atomic weight will 117
its authors headlong from 72
its authors should have 74
its authors simply pick 55
its azimuth circle give 47
its banner without ever 55
its becoming something other 70
its bitter attack upon 40
its bleaching effect upon 45
its bounding course into 131
its brawling waters were 45
its bright course high 121
its bright lights were 45
its bright little eyes 211
its bright rivers leaping 135
its bright waters into 60
its bright waters were 41
its bright yellow body 56
its bright yellow eyes 94
its bright yellow legs 43
its broken summit grew 74
its building blocks were 51
its carbon dioxide from 77
its carbon dioxide into 84
its carrying amount must 46
its carrying amount will 81
its chafed waters into 83
its changes through time 687
its choice already made 63
its choice mainly upon 51
its closed bodies from 48
its combat forces from 132
its combat troops from 98
its common english name 380
its common german name 68
its common modern meaning 42
its common shares from 57
its costly mental health 69
its course plunged from 46
its course through life 111
its course through mali 41
its course through many 148
its course through other 61
its course through rich 52
its course through some 130
its course through such 59
its course through their 57
its course through these 200
its course through time 362
its course through what 40
its course without ever 101
its course without giving 94
its course without having 77
its course without leaving 47
its course without much 165
its course without once 57
its course without pain 87
its course without some 95
its courts always open 314
its cramping effect upon 44
its credit policy from 48
its credit standing will 42
its crushing effect upon 63
its crushing weight upon 76
its damaging effect upon 184
its deadening effect upon 135
its dearest pledge from 47
its dearest rights must 48
its deeply forked tail 216
its degree varies from 47
its deluge strength when 42
its devious course along 48
its devious course from 48
its dictum changed their 50
its dipole moment will 43
its direct attack upon 50
its direct course from 77
its direct effect upon 1149
its direct impact upon 234
its direct object only 95
its direct origin from 76
its divine origin from 140
its divine origin were 50
its dogmas purely ideal 41
its dollar holdings into 93
its double summit coal 51
its earlier phases have 43
its earlier stages been 44
its earlier stages from 81
its earlier stages have 55
its earlier stages more 44
its earlier stages must 84
its earlier stages there 227
its earlier stages were 107
its earlier stages when 104
its earlier stages will 87
its eastern border along 40
its eastern border from 96
its eastern branch into 45
its eastern limits reach 48
its eastern limits were 47
its eastern shores till 65
its eastern shores were 63
its eastern waters from 78
its effect arises from 66
its effect evenly upon 40
its effect mainly upon 42
its effect should have 101
its effect solely upon 47
its effect through some 68
its effect varies from 59
its effect without ever 58
its elders behind their 52
its emerging issues task 58
its energy levels will 44
its energy mainly from 116
its energy solely from 91
its energy supply from 174
its english common name 41
its entire budget from 53
its entire course along 70
its entire course from 469
its entire extent from 225
its entire income from 241
its entire larval life 59
its entire profit from 52
its entire strength from 43
its entire strength into 45
its entire supply from 176
its entire useful life 1134
its entire weight into 78
its entire weight upon 58
its equity powers over 42
its escape through such 43
its events should form 41
its exempt status when 53
its existing client base 317
its export income from 141
its export prices rise 44
its extent depend upon 40
its extent varied from 46
its extent varies from 104
its famous native sons 43
its fashion passes away 47
its fibers insert into 95
its fibers radiate from 44
its fields afford their 46
its fierce yellow eyes 44
its fighting forces were 50
its fighting powers were 44
its figure arises from 61
its findings without ever 159
its finite regions know 40
its formal powers were 49
its former allies from 50
its former allies were 44
its former breeding range 66
its former leaders were 108
its former owners were 66
its former robust self 67
its former soviet ally 45
its former standing among 84
its former vacant gaze 49
its former volume when 75
its former warsaw pact 144
its founding fathers were 141
its founding twenty years 70
its further course from 43
its further course will 218
its future course from 87
its future course must 44
its future course will 170
its future effect upon 96
its future impact upon 55
its future income from 48
its future looked bleak 94
its gloomy shadow over 185
its gloomy waters from 65
its golden aspect only 41
its golden mantle over 103
its golden temple were 45
its gorged system half 154
its greater initial cost 59
its ground before these 49
its ground forces from 261
its ground forces into 50
its ground forces were 50
its ground pretty well 45
its ground troops from 143
its habits whilst young 71
its handle shaped like 43
its headlong course till 41
its hebrew parent text 58
its height looked down 84
its height twelve feet 41
its height varies from 335
its heroic actions there 44
its hideous groans join 50
its higher initial cost 280
its houses sacked just 68
its hurrying waters break 42
its impact varied from 71
its impact varies from 58
its income mainly from 280
its income partly from 47
its income solely from 272
its income toward rent 40
its indoor swimming pool 96
its infant strength must 40
its initial effect upon 52
its initial forays into 70
its initial impact upon 67
its initial stages during 49
its initial stages even 49
its initial stages from 63
its initial stages only 94
its initial stages there 91
its initial stages were 112
its initial stages when 193
its initial stages will 52
its initial strength from 109
its initial volume when 46
its jealous course among 92
its larger sample size 89
its latent energy into 47
its latent powers into 40
its latest finish time 179
its latest nursling fled 78
its latest starting time 64
its laurel shades will 57
its leaders became more 147
its leaders become more 52
its leaders behind bars 46
its leaders relied upon 55
its leaders should have 173
its leaders should keep 45
its leaders turned their 61
its likely effect upon 202
its likely impact upon 204
its limpid waters into 123
its little bright eyes 60
its little flower beds 81
its little inborn tune 71
its little tender arms 46
its little velvet nose 69
its little wheels will 41
its lovely little coal 50
its lowest energy when 58
its lowest levels during 147
its lowest levels ever 165
its maiden flight from 372
its maiden flight over 44
its maiden voyage down 49
its maiden voyage from 925
its maiden voyage into 71
its maiden voyage when 48
its managing editor from 74
its mantle through some 45
its marching orders from 444
its marching through their 40
its marked effect upon 116
its meetings became more 94
its member groups have 43
its member nations have 104
its member nations were 82
its member nations will 46
its member states also 53
its member states during 49
its member states from 155
its member states have 2353
its member states into 111
its member states must 271
its member states over 54
its member states were 584
its member states will 898
its menacing shadow over 66
its merely verbal jingle 42
its merits should have 67
its methods became more 193
its methods differ from 307
its middle english form 108
its middle english poems 73
its mighty pillar rising 94
its mighty shadow over 105
its mighty waters into 42
its modern arabic name 118
its modern english meaning 56
its monthly meetings there 51
its monthly meetings were 66
its motions become more 40
its narrow bottom gets 53
its narrow escape from 258
its narrow ethical ideas 41
its narrow limits have 42
its narrow wicket gate 58
its native format into 43
its nature changes from 47
its nature exempt from 42
its nature should have 175
its nature varies from 71
its normal breeding range 106
its normal course during 41
its normal course from 79
its normal course into 82
its normal course when 80
its normal effect upon 47
its normal strength when 46
its normal useful life 361
its nuclear forces from 47
its nuclear options open 165
its nuclear weapons from 496
its nuclear weapons have 44
its nuclear weapons only 55
its nuclear weapons were 102
its nuclear weapons will 40
its object differ from 68
its object something more 86
its object something other 89
its obvious effect upon 59
its office bearers were 82
its online auction site 50
its opinion should have 68
its opinion striking down 87
its orders direct from 206
its origin farther back 121
its origin further back 126
its origin mainly from 106
its origin merely from 54
its origin partly from 127
its origin should have 65
its origin solely from 221
its origin traced back 45
its output changes from 55
its output should have 52
its output signal will 56
its oxygen enters into 57
its oxygen supply from 175
its parent window when 83
its partial double bond 47
its plumes floating over 74
its policy became more 89
its policy makers have 76
its policy makers were 44
its policy stance from 49
its policy toward cuba 246
its policy toward india 80
its policy toward iran 129
its policy toward iraq 144
its policy toward jews 40
its policy toward korea 91
its policy toward north 502
its policy toward other 77
its policy toward south 506
its policy toward these 58
its powers beyond their 45
its powers beyond those 64
its powers derive from 75
its powers direct from 54
its powers except those 48
its powers extend only 60
its powers extend over 95
its powers should have 55
its powers solely from 94
its pretty flimsy veil 49
its prices without losing 100
its profit margin from 110
its profit margin ratio 68
its profit margin will 74
its proper effect only 91
its proper effect upon 655
its proper effect when 100
its proper native name 60
its proper nature when 77
its proper object here 104
its proper object were 68
its proper powers only 166
its proper reward from 48
its proper speeds were 63
its proper sphere when 66
its proper strength must 73
its proper virtue will 234
its proper weight must 110
its public meetings were 48
its public policy role 53
its public release from 49
its public sector debt 74
its pupils mainly from 46
its purely formal side 56
its radius vector will 76
its readers already hold 58
its readers should have 45
its reflex effect upon 143
its relaxing effect upon 83
its rental income from 74
its return flight from 108
its return voyage from 275
its riches freely mine 152
its rights without having 64
its roused mental life 53
its rulers should have 52
its sacred writings were 80
its safety should have 40
its safety without much 103
its savage charms have 93
its school system during 40
its second atomic bomb 79
its second decade when 61
its second nuclear test 55
its second session from 92
its second session held 365
its secret nature must 57
its session without having 64
its seventh session held 85
its shadow across their 66
its shadow across your 51
its shadow passed over 145
its shares unless their 77
its sister cities from 48
its sister cities were 68
its solemn murmur most 58
its solemn public duty 59
its sombre shadow over 106
its sounds strike upon 135
its speaker should stop 73
its special claims upon 42
its special effect upon 79
its special flavor from 84
its special origin from 100
its special session held 192
its special session will 40
its special status among 76
its special status from 61
its spirit twenty years 45
its spreading boughs have 81
its square ground plan 43
its stages without giving 44
its starting points from 51
its status changed from 188
its status changes from 91
its stored energy into 106
its stormy answer like 53
its strange effect upon 70
its strange virtue upon 55
its strength arises from 70
its strength fairly well 41
its strength mainly from 454
its strength mostly from 68
its strength partly from 126
its strength solely from 90
its strength through pure 52
its strength varied from 47
its strength varies from 90
its stroke volume into 64
its subtle poison into 48
its sudden changes from 166
its sudden passion there 117
its sudden release from 51
its summit looked down 129
its summit should reach 54
its sunday school work 48
its supply direct from 48
its supply mainly from 47
its talent should have 64
its target payout ratio 63
its tender passion rose 105
its tender shoots will 44
its tendon passes over 59
its thermal energy into 79
its throbbing waters into 60
its tinkling murmur down 54
its torpid misery come 44
its tragic effect upon 64
its treble damage suit 90
its trivial foliage free 63
its turbid floods into 176
its turbid waters along 41
its turbid waters into 115
its turbid waters much 74
its twelve altars rich 48
its tyrant temper best 49
its unifying effect upon 59
its unique flavor from 54
its unique status among 78
its united nations dues 42
its united states army 55
its united states code 49
its united states range 589
its upward course from 57
its utmost extent along 60
its utmost extent over 47
its utmost height during 40
its utmost height when 102
its utmost reaches there 109
its values differ from 41
its values upside down 113
its various bodies once 54
its various changes from 83
its various nations some 58
its various organs have 56
its various peoples were 48
its various phases during 41
its various phases from 189
its various phases have 95
its various phases into 48
its various phases must 45
its various phases pass 41
its various phases were 73
its various phases will 137
its various stages during 40
its various stages from 538
its various stages have 97
its various stages were 121
its various stages will 65
its various states were 54
its vastly greater size 58
its volume changes from 226
its volume turned down 128
its vortex milton bent 55
its voyage through time 44
its warbling waters drew 120
its waters became less 82
its waters flowed into 178
its waters seemed much 130
its waters through many 40
its waters without making 102
its weakening effect upon 117
its weekly errand bore 48
its weekly meetings during 42
its weekly meetings were 91
its weight behind these 42
its weight behind those 75
its weight pressing down 47
its weight pressing upon 40
its weight varies from 171
its wicked little eyes 46
its widely opened mouth 56
its widest extent from 47
its withering blight over 43
its wonted effect upon 41
its wonted sphere into 47
its writer should have 54