ice driven bodily under 48
ice poured limpid rills 55
ice sheets covering large 40
idea became widely spread 101
idea through reasoning helps 45
idea whether anyone would 48
idea without worrying about 42
ill feelings toward others 93
inn before dinner which 45
int public static final 836
its absurd notions about 42
its actual effect would 50
its actual height above 85
its actual market price 139
its actual market share 126
its actual market value 977
its actual starting point 45
its acuter stages every 60
its almost unceasing change 47
its already existing stock 40
its angular height above 75
its annual budget which 63
its annual course about 50
its annual course round 318
its annual dinner dance 116
its annual export earnings 147
its annual formal dance 48
its annual income would 46
its annual meetings since 45
its annual proper motion 81
its annual public meeting 55
its annual rental value 261
its annual report about 117
its annual report dated 59
its annual report filed 200
its annual report under 322
its annual report which 218
its annual report within 168
its annual return shall 58
its annual session shall 43
its annual summer meeting 115
its annual summit meeting 47
its annual winter meeting 59
its atomic number would 54
its atomic weight would 181
its avowed object would 47
its bitter result comes 41
its bottom through which 100
its bright golden color 43
its bright sanded floor 224
its bright yellow breast 67
its bright yellow color 455
its bright yellow cover 63
its bright yellow leaves 105
its bright yellow paint 68
its bright yellow walls 65
its carved wooden doors 64
its caudal nerves could 42
its center around which 45
its center through which 256
its common english usage 52
its course before reaching 77
its course stands still 93
its course through egypt 105
its course through every 60
its course through space 259
its course without causing 89
its course without delay 105
its course without either 95
its course without fever 209
its course without halting 43
its course without human 60
its course without undue 45
its covering letter dated 50
its darker coloring under 41
its deeply graven marks 53
its devious windings about 95
its direct effect would 40
its direct fruits alone 133
its divine origin could 42
its divine origin which 59
its divine origin would 67
its earlier stages seems 53
its earlier stages would 57
its eastern border which 43
its eastern margin rises 51
its eighty million people 47
its emerging middle class 70
its energy creates action 120
its english source since 43
its entire common stock 56
its entire course within 106
its entire police force 87
its entire second floor 99
its entire supply chain 489
its excess energy either 40
its exempt status under 227
its exiled family never 43
its existing common stock 46
its existing market share 144
its existing market value 52
its existing powers under 41
its export market share 107
its extent reached fully 40
its famous bronze doors 40
its famous silver mines 46
its feature seemed rather 117
its fellow alkali metal 60
its fighting strength would 40
its finely varied tones 43
its flight through space 347
its flight toward heaven 61
its forces without delay 161
its former dwelling place 49
its former energy level 51
its former liquid state 53
its former market share 114
its former normal state 46
its former status after 45
its former status under 48
its former status within 59
its former thronged state 44
its former volume after 42
its fruits without labor 45
its future course could 46
its future course would 48
its future energy needs 404
its future income stream 179
its future market share 58
its future market value 45
its future policy would 53
its future resale value 40
its global market share 450
its global supply chain 268
its golden breasts above 48
its golden yellow color 82
its greater weight would 41
its grisly clouds warping 53
its ground energy state 94
its heyday before world 87
its higher energy level 52
its higher energy state 68
its higher market value 48
its higher stages shows 41
its highly gifted author 40
its hollow glassy threads 92
its images behind which 47
its income before taxes 115
its income yielding power 74
its initial energy level 58
its initial energy state 49
its initial freezing point 51
its initial ground state 46
its initial margin level 57
its initial market share 53
its initial offering price 219
its initial planning stage 70
its initial public stock 315
its initial report within 90
its initial review under 44
its initial stable state 69
its initial stages could 46
its initial stages until 56
its initial stages would 61
its initial starting point 734
its initial strength after 58
its initial supply price 61
its initial tender offer 50
its inlaid marble floor 48
its likely effect would 52
its limits beyond which 127
its limpid waters flowing 51
its little murmur round 156
its little narrow round 89
its little native creek 154
its little tender frame 42
its little uneven cubes 47
its little wooden cross 83
its lowest energy level 1163
its lowest energy state 4188
its lowest figure since 86
its lowest levels since 327
its lowest summer level 65
its maiden voyage after 62
its maiden voyage under 55
its managing editor until 51
its market demand curve 42
its marshy source every 51
its matter exists under 40
its member credit unions 153
its member nations would 43
its member states about 52
its member states could 131
its member states shall 706
its member states since 44
its member states under 154
its member states which 832
its member states within 96
its member states would 393
its merits became known 42
its merits become known 81
its middle portion about 41
its middle portion flesh 61
its middle through which 47
its million square miles 148
its mission through space 127
its modern english sense 74
its mortal poison still 149
its native haunts would 48
its native savage state 59
its nature highly penal 68
its nature something which 58
its normal course after 125
its normal course again 105
its normal course until 104
its normal cruising speed 128
its normal energy level 188
its normal energy state 196
its normal english sense 61
its normal freezing point 489
its normal ground state 261
its normal liquid state 69
its normal market price 42
its normal market value 97
its normal retail price 50
its normal stable state 53
its normal strength until 41
its normal summer level 41
its normal yellow color 54
its nuclear strike force 101
its nuclear striking force 52
its nuclear striking power 81
its nuclear weapons could 40
its nuclear weapons first 151
its nuclear weapons option 163
its nuclear weapons testing 131
its nuclear weapons tests 67
its nuclear weapons until 58
its nuclear weapons while 52
its nuclear weapons would 86
its object something which 190
its origin wholly within 45
its outlet through bayou 43
its outset through every 72
its pallid lilies brown 69
its partial simple tones 61
its poison through every 53
its policy planning staff 73
its policy toward china 623
its policy toward israel 345
its policy toward japan 363
its policy toward labor 51
its policy toward latin 424
its policy toward russia 230
its policy toward women 70
its powers without waste 59
its proper course again 49
its proper dwelling place 57
its proper english sense 68
its proper formal sense 46
its proper matter which 42
its proper sphere would 40
its proper starting point 63
its public opinion polls 95
its public policy goals 94
its public policy shall 48
its public swimming pools 118
its quaint little shops 43
its quoted market price 61
its raised middle piece 47
its random thermal motion 67
its recent annual meeting 384
its richly stored pages 59
its robust common sense 40
its second annual meeting 1100
its second edition within 48
its second energy level 104
its second moment about 46
its second session after 67
its second session shall 47
its second session under 40
its second stable state 195
its secret windings still 89
its section number within 41
its session without finding 70
its seventh annual meeting 272
its shrewd common sense 42
its silver scales until 144
its simple common sense 68
its simple tinkling sound 52
its solemn pulses sending 119
its special patron saint 65
its special police force 43
its special powers under 66
its special status under 101
its special status within 143
its spending clause power 59
its spirit without either 42
its square church tower 42
its square norman tower 147
its stable ground state 157
its stance toward israel 53
its stated policy goals 68
its stealthy minute march 51
its sterling common sense 177
its strict modern sense 49
its sturdy common sense 64
its summit appearing above 75
its tangent vector field 71
its taylor series about 84
its tender little beauty 55
its tendon passes beneath 54
its tendon passes under 77
its thickly wooded banks 41
its travel through space 173
its troops without delay 40
its twelfth annual meeting 104
its twelve million people 64
its twenty million people 53
its twenty square miles 50
its unique status within 63
its united states debut 51
its united states naval 95
its unpaid hordes would 49
its upward course until 70
its various dosage forms 60
its various modern forms 130
its various phases until 49
its various phases would 58
its various special cases 42
its various special forms 58
its various stages until 193
its various stages which 45
its volume without changing 58
its voyage through space 113
its weight neither loses 98
its weight should carry 68
its weight without feeling 42
its widest extent under 52
its yellow grains gleaming 68