idea became firmly rooted 62
idea seemed simple enough 87
idea slowly gained ground 41
ill feelings toward anyone 70
inn looked pretty lonely 93
int double double double 62
int result return result 201
its actions showed itself 61
its active nature before 71
its actual energy greater 43
its agents should reside 81
its agents without regard 42
its amount varies greatly 52
its amount varies widely 47
its annual awards dinner 69
its annual course around 206
its annual course through 43
its annual dollar volume 133
its annual joyous return 2028
its annual report covering 85
its annual report issued 91
its annual report stated 79
its annual report whether 68
its annual summer school 44
its atomic number changes 45
its atomic weight should 173
its banana import regime 97
its benign aspect turned 48
its blasting rebuke causes 52
its bloody eddies wheeling 44
its boughs reaches always 61
its bright yellow flower 124
its bright yellow petals 41
its brimming waters through 43
its burden merely through 52
its carbon dioxide output 45
its carbon dioxide tension 81
its carbon dioxide through 50
its career through various 70
its career without allowing 84
its carrying amount should 106
its chance appears indeed 47
its closer regions without 58
its common school system 109
its course almost without 99
its course before entering 65
its course passed through 159
its course passes through 224
its course through bavaria 46
its course through europe 163
its course through london 107
its course through various 41
its course turned toward 45
its course without further 244
its course without regard 85
its course without serious 42
its covert nuclear weapons 57
its crafty expert agents 132
its devious course through 164
its dipole moment changes 93
its divine origin onward 93
its divine origin proved 68
its divine source through 62
its dorsal carpal branch 52
its earlier course through 85
its earlier stages before 63
its earlier stages without 71
its eddies played around 261
its effect mainly through 77
its effect solely through 52
its effect spreads through 71
its eleven stages without 57
its entire annual budget 85
its entire annual income 46
its entire course through 310
its entire course without 291
its entire eastern border 130
its entire edition before 40
its entire output through 62
its entire policy toward 66
its entire public school 40
its entire school system 101
its entire weight behind 106
its excess carbon dioxide 82
its existing nuclear weapons 50
its export market shares 67
its export sector become 68
its family planning policy 80
its famous coffee houses 133
its famous public school 54
its fellow member states 193
its female yields little 47
its floral carvings choked 126
its former client states 172
its former course through 49
its former forced levity 47
its former member states 41
its former narrow limits 69
its former owners without 69
its former vassal states 97
its further course through 103
its further course toward 47
its future course should 57
its future looked bright 80
its future meetings should 46
its future policy toward 100
its future seemed bright 58
its future seemed secure 95
its gloomy shadow across 64
its glossy annual report 56
its golden border shoots 254
its golden courts opened 83
its golden fleece hovering 42
its golden nimbus around 49
its greater atomic weight 41
its ground combat forces 110
its habits demand strength 66
its hazard lights blinking 131
its hazard lights flashing 117
its headlong course across 64
its higher atomic number 112
its higher atomic weight 83
its income before income 51
its initial planning stages 216
its initial public offering 6386
its initial stages before 61
its initial stages through 69
its inviting little tables 57
its issues seldom answer 100
its larger sister island 46
its latest annual report 1580
its latest editor boldly 58
its likely future course 131
its likely future impact 40
its limits without becoming 52
its little flower garden 52
its little globes extent 149
its little norman church 56
its little walled garden 52
its little wooden houses 55
its lonely course without 53
its maiden voyage across 195
its maiden voyage through 46
its meetings behind closed 186
its member nations should 42
its member states agreed 46
its member states should 434
its member states through 479
its member states without 46
its memory should depend 145
its merits become better 42
its merits without regard 181
its meshes become larger 72
its meshes little masses 53
its middle course through 55
its middle eastern allies 139
its middle eastern policy 467
its middle meningeal branch 51
its mighty course almost 56
its mission without further 41
its mobile public opinion 73
its monthly course around 55
its muzzle pointing toward 69
its narrow circle gathers 57
its narrow islets united 42
its nature better suited 126
its nature drives beyond 89
its nature evokes earnest 60
its nature revealing itself 44
its nimble coursing through 50
its normal course through 214
its normal course toward 53
its normal course without 106
its normal oxygen supply 47
its norman castle marked 104
its nuclear energy policy 66
its nuclear export policy 60
its nuclear weapons effort 51
its nuclear weapons plants 43
its nuclear weapons policy 124
its nuclear weapons status 105
its nuclear weapons without 56
its number should repair 51
its object exists before 63
its object public strength 94
its obvious chilling effect 180
its online public access 45
its onward course through 156
its onward course toward 44
its output signal traced 126
its oxygen supply through 42
its pointing beyond itself 133
its policy toward africa 82
its policy toward eastern 130
its policy toward europe 103
its policy toward france 43
its policy toward mexico 62
its policy toward poland 80
its policy toward securing 167
its policy toward taiwan 268
its pretty little church 71
its proper course through 44
its proper object thought 43
its proper sphere without 52
its public agents should 46
its public domain status 588
its public pension system 127
its public policy agenda 78
its public school houses 68
its public school system 3201
its public sector reform 48
its pupils without charge 49
its purely formal aspect 149
its purely formal nature 58
its quaint little church 99
its radius vector sweeps 89
its radius vector varies 46
its random access memory 178
its recent annual report 149
its retreat forced joseph 87
its retreat without further 44
its rulers thought proper 51
its sacred laurel crowns 53
its second annual report 1598
its second annual review 54
its second annual session 236
its second cousin taught 85
its second person singular 62
its second phrase appearing 42
its second special session 257
its secret nuclear weapons 86
its sequel sister teresa 44
its serene trusting strength 51
its seventh annual report 241
its seventh annual session 62
its seventh special session 338
its shadow beyond myself 128
its shares without thereby 95
its simple tapering joints 40
its spreading farther through 91
its square figure without 40
its stages without debate 60
its stages without further 45
its stated dollar amount 329
its stored energy through 45
its stored thunder laboring 59
its strange feudal towers 41
its sudden retreat through 43
its tendon passes behind 198
its tendon passes through 425
its thickly wooded slopes 111
its thought through whilst 49
its throbbing pulses gently 45
its thrones without shadow 105
its turbid waters through 66
its twelfth annual report 118
its twelve member states 152
its united nations allies 82
its united states branch 72
its united states income 165
its united states market 97
its united states office 47
its united states parent 392
its united states source 62
its united strength should 52
its upward course through 134
its various copies differ 53
its various fierce leaders 42
its various grades should 121
its various member states 159
its various phases through 56
its various stages before 62
its various stages through 149
its various stages without 97
its vassal border states 93
its vertex placed beyond 45
its victim without wavering 48
its volume become greater 93
its waters flowed through 46
its waters speeding through 52
its weight firmly behind 45
its windings flowed through 44
its wooded shores dotted 55
its wooden bridge across 57
its zigzag course through 89