idea gradually gained ground 284
ill regulated public spirit 92
its appearance varies greatly 69
its appointed course through 77
its assistant managing editor 54
its associated muscle fibers 63
its authorized shares without 74
its biological oxygen demand 123
its character greatly changed 52
its chartered powers permit 87
its commercial policy should 72
its commercial policy toward 58
its component member states 87
its conclusion without further 46
its contorted strength around 49
its convexity turned toward 51
its countless bright orders 87
its dependent states became 47
its determining ground neither 69
its different stages through 50
its diffusive energy abroad 42
its discovery already noised 84
its dissolved carbon dioxide 88
its eccentric course dazzling 45
its effective atomic number 95
its effective fighting strength 48
its effective nuclear charge 95
its emergency lights flashing 122
its employees without regard 50
its engagement policy toward 73
its equitable energy through 54
its estimated annual income 51
its excellent public school 41
its excellent safety record 161
its excellent school system 107
its exclusive patent rights 43
its exhibition caused neither 44
its existence almost wholly 47
its existence became public 144
its existence should always 78
its existence should follow 50
its expression became serious 53
its fourteenth annual report 123
its franchise system through 45
its frequency varies greatly 53
its graduates became leaders 43
its headlights sweeping across 64
its historians something further 62
its impetuous waters through 87
its incidence varies greatly 50
its incidence varies widely 54
its influence across europe 54
its influence mainly through 69
its influence solely through 65
its intensity varies greatly 103
its intensity without regard 57
its interests better served 56
its invariance across groups 45
its irregular square already 80
its molecular weight should 64
its movements become slower 45
its nakedness barely shaded 43
its outstanding common shares 144
its outstanding safety record 44
its partisans should uphold 50
its periodical sweeps through 41
its permanent dipole moment 139
its political options should 63
its political system became 42
its political system intact 49
its political system through 40
its political system without 42
its political weight behind 75
its ponderous shadow seemed 47
its ponderous weight through 126
its principal energy source 73
its principal export market 205
its proceedings behind closed 43
its production clearly worked 62
its production without further 143
its prospects seemed bright 41
its protection should extend 111
its provisions should become 45
its published annual report 92
its qualities already clearly 42
its quantized energy states 43
its revolution around another 81
its rotational energy levels 45
its roundness without becoming 78
its secondary school system 85
its shoulders clothed already 49
its sovereign member states 149
its strategic nuclear forces 977
its strategic nuclear weapons 397
its strategic planning system 45
its structure greatly changed 62
its struggles rolled itself 50
its suggested resale prices 109
its suggested retail prices 156
its surrounding cosmic milieu 62
its surrounding normal tissue 87
its surrounding venous plexus 49
its suspected nuclear weapons 188
its suspicious nature sensed 173
its territory troops belonging 298
its transition dipole moment 63
its unsightly spikes pointing 42