lab report should be 66
lad should report in 45
lag before changes in 48
lag behind another in 76
lag behind anyone in 105
lag behind changes in 4366
lag behind demand in 43
lag behind england in 43
lag behind europe in 133
lag behind prices in 299
lag behind shifts in 46
lag behind whites in 752
lag behind whites on 137
lag farther behind the 117
lag further behind in 44
lag further behind the 226
lag occurs before the 82
lag screws across the 141
lag screws should be 194
lag screws through the 178
lap joints should be 172
law adapts itself to 145
law allowing aliens to 46
law allowing cities to 49
law allowing police to 46
law allowing states to 48
law allows anyone to 129
law allows cities to 40
law allows courts to 71
law allows judges to 80
law allows police to 69
law allows states to 519
law already existing in 96
law already exists in 80
law already passed by 226
law always refers to 99
law always seemed to 66
law before becoming an 48
law before deciding to 43
law before entering the 274
law before notice of 52
law better suited to 71
law claims relating to 125
law claims should be 64
law clause should be 65
law clearly states the 79
law clerks should be 43
law courts before the 132
law courts failed to 66
law courts instead of 148
law courts refuse to 46
law courts should be 447
law courts tended to 53
law courts through the 53
law created through the 54
law crimes should be 44
law degree before he 44
law except through the 125
law existing before the 555
law existing without the 44
law extend beyond the 46
law grants rights to 53
law imposing duties on 274
law imposing duties or 114
law issues raised by 185
law issues raised in 56
law issues relating to 133
law issues should be 52
law itself appears to 68
law itself became an 40
law itself became the 47
law itself limits the 43
law itself refers to 49
law itself seemed to 74
law itself should be 493
law judges should be 113
law lagged behind the 75
law lately passed by 113
law lately passed in 57
law limiting access to 48
law limiting bakers to 92
law limiting status as 118
law limits access to 50
law limits itself to 101
law mainly through the 52
law makers should be 50
law merely refers to 42
law merely serves to 51
law office across the 93
law office before he 53
law office before the 40
law office instead of 50
law office should be 81
law passed before the 398
law passed earlier in 75
law passed through the 213
law passed without the 137
law placed limits on 80
law places limits on 261
law reform before the 46
law reform bodies in 97
law reform relating to 44
law reform should be 220
law reform sought to 45
law reform through the 104
law relating thereto in 46
law relating thereto is 79
law relied heavily on 102
law relies heavily on 182
law revealing itself in 52
law reveals itself as 96
law reveals itself in 80
law reveals itself to 44
law review editor at 43
law rights should be 45
law rights unless the 46
law scarce allows to 69
law school became the 49
law school before he 92
law school before the 138
law school building at 57
law school building in 51
law school building is 130
law school course at 44
law school course in 363
law school course is 56
law school course of 44
law school course on 267
law school friend of 110
law school instead of 248
law school itself is 90
law school opened in 78
law school seemed to 87
law school should be 446
law school sought to 57
law school through the 70
law school training at 53
law school training in 117
law school training is 84
law school without the 71
law seemed likely to 60
law seemed unable to 60
law should accept the 63
law should always be 1060
law should become the 110
law should commit on 43
law should compel the 102
law should decide it 53
law should decide the 48
law should decide to 41
law should define the 220
law should depend on 91
law should enable the 72
law should esteem so 43
law should excuse the 55
law should extend the 43
law should extend to 245
law should follow the 265
law should forbear to 68
law should forbid the 206
law should further the 46
law should govern as 48
law should govern in 163
law should govern the 1405
law should happen to 153
law should ideally be 40
law should ignore the 74
law should impose on 93
law should impose the 40
law should insist on 58
law should neither be 100
law should permit it 52
law should permit the 286
law should punish the 84
law should reduce the 46
law should refuse to 107
law should regard as 131
law should remain as 518
law should remain in 891
law should remain on 43
law should remain the 64
law should result in 132
law should retain the 43
law should return to 44
law should secure to 59
law should strive to 174
law should supply the 98
law showed itself in 61
law simply states the 59
law system should be 79
law thereby become an 53
law unless passed by 90
law unless signed by 47
law without altering it 89
law without appealing to 46
law without appearing to 52
law without choice of 61
law without energy or 76
law without injury to 46
law without livery of 107
law without realizing it 46
law without regard to 2464
law without resort to 157
law without violating the 219
lax drooping boughs of 44
lax police system of 62
lay almost across the 137
lay almost beyond the 75
lay almost buried in 151
lay almost hidden in 121
lay almost solely in 68
lay almost wholly in 449
lay almost wholly on 47
lay always before me 262
lay another burden on 57
lay another clutch of 92
lay another course of 82
lay another person on 88
lay another source of 69
lay asleep across the 54
lay asleep around the 88
lay asleep before the 118
lay asleep beside me 45
lay asleep beside the 54
lay asleep curled up 64
lay before buried in 328
lay before europe at 94
lay beyond england he 56
lay bleeding across the 54
lay boards across the 48
lay bright before us 57
lay bright shreds of 49
lay broken across the 41
lay buried amidst the 42
lay buried before the 47
lay buried behind the 54
lay buried beside the 62
lay cables across the 48
lay calmly sleeping by 42
lay carved stones of 81
lay clearly before me 172
lay clearly before the 139
lay clearly before us 54
lay clearly beyond the 40
lay coiled around the 98
lay coursing through the 48
lay curled around the 90
lay darkly across the 40
lay deeply buried in 473
lay deeply hidden in 79
lay deeply rooted in 198
lay draped across the 345
lay enough stress on 271
lay fairly before the 70
lay fairly before us 94
lay fallen across the 47
lay floating around on 50
lay folded across my 43
lay folded across the 125
lay further stress on 142
lay greater stress on 6419
lay greater weight on 106
lay groups should be 43
lay heavily across the 189
lay hidden amongst the 90
lay hidden behind an 40
lay hidden behind it 352
lay hidden behind the 3611
lay hidden beyond the 429
lay hidden inside the 183
lay import duties on 44
lay leaders should be 114
lay limply across the 83
lay little stress on 1941
lay little weight on 53
lay marked stress on 66
lay moored before the 65
lay moored beside the 50
lay mostly through the 55
lay myself across the 75
lay narrow strips of 53
lay papers before the 50
lay partly across the 114
lay partly buried in 104
lay partly hidden in 50
lay partly through the 73
lay person should be 364
lay planks across the 155
lay pretty thickly on 69
lay proper stress on 126
lay public should be 191
lay public through the 47
lay safely stowed in 56
lay sermon aboard the 136
lay silent behind the 46
lay sleeping across the 40
lay sleeping before the 72
lay sleeping beside me 159
lay sleeping beside the 86
lay sleeping safely at 44
lay snugly coiled up 43
lay special stress on 7350
lay special weight on 75
lay stress enough on 107
lay stress mainly on 46
lay strewn across the 1561
lay strewn around in 40
lay strewn around on 45
lay strewn around the 441
lay thickly around the 42
lay through fields of 184
lay through groves of 145
lay tracks across the 259
lay tracks through the 209
lay twenty guineas to 42
lay vastly beyond the 189
lay wagers whether it 42
lay watching through the 70
lay wholly beyond the 233
lay wholly without the 89
lay without speech or 87
lay without thought or 53
lay yellow streaks of 89
lead agency agrees to 49
lead agency should be 244
lead agency should or 44
lead almost always to 154
lead almost anyone to 40
lead another attack on 43
lead another person to 343
lead aprons should be 103
lead beyond itself to 153
lead button should be 191
lead groups through the 96
lead guitar player in 102
lead levels should be 318
lead member states to 187
lead midway through the 622
lead modern readers to 113
lead passed through the 116
lead passes through the 278
lead pencil across the 50
lead pencil before the 104
lead pencil instead of 107
lead pencil should be 248
lead pencil through the 118
lead plates placed in 48
lead policy makers to 789
lead public opinion as 121
lead public opinion by 130
lead public opinion in 1468
lead public opinion on 524
lead public opinion or 188
lead public opinion to 601
lead readers through the 382
lead ripped through the 43
lead sheets should be 46
lead shield around the 150
lead shield should be 123
lead should always be 518
lead soviet leaders to 41
lead system should be 52
lead upward through the 86
lead upward toward the 67
lead without appearing to 47
leaf blight caused by 529
leaf blight disease of 120
leaf blotch caused by 229
leaf blotch disease of 80
leaf damage caused by 322
leaf design around the 103
leaf disease caused by 268
leaf driven before the 84
leaf injury caused by 83
leaf lesions caused by 43
leaf litter around the 72
leaf litter covering the 56
leaf litter should be 48
leaf passes through the 66
leaf scorch caused by 69
leaf should always be 55
leaf slowly through the 44
leaf spotting caused by 63
leaf through copies of 41
leaf tissue around the 46
leaf tissue caused by 47
leaf tissue through the 58
leaf whirling onward in 43
leaf without removing it 43
leak occurs around the 45
leak occurs through the 43
leak should double on 64
leak slowly through the 50
leak through cracks in 85
lean ground turkey or 162
lean heavily toward the 1280
lean inward toward the 42
lean muscle tissue as 141
lean muscle tissue in 94
lean muscle tissue is 117
lean muscle tissue to 73
lean mutton boiled in 188
lean porter standing at 63
lean pretty heavily on 230
leap upward through the 94
leap without touching it 66
led allied forces in 42
led almost always to 85
led another attack on 124
led another mission to 53
led another person to 95
led another revolt in 49
led around behind the 44
led around through the 122
led astray neither by 80
led astray through the 1474
led church leaders to 98
led edmund wilson to 60
led england through the 42
led french armies to 53
led french forces in 51
led french troops to 79
led further astray by 54
led german leaders to 50
led horses belonging to 190
led indira gandhi to 59
led matthew arnold to 156
led member states to 68
led onward through the 116
led peasant uprising in 83
led policy makers in 84
led policy makers to 1305
led prancing through the 52
led prayer meetings in 114
led public opinion by 42
led public opinion in 296
led public opinion on 71
led public opinion to 468
led russian leaders to 40
led safely across the 64
led safely through the 134
led slowly around the 50
led slowly through the 57
led soviet leaders to 198
led theseus through the 96
led through fields of 192
led through groves of 182
led through scenes of 108
led through stages of 41
led through vanity up 69
led troops across the 187
led upward through the 251
led upward toward the 332
led various authors to 307
led various groups of 54
led various groups to 57
led wildly astray by 58
led william morris to 73
leg cramps caused by 76
leg hooked around the 118
leg passes through the 136
leg should always be 184
leg should remain in 56
leg sticking through the 116
leg ulcers caused by 62
leg ulcers should be 57
leg upward toward the 47
leg without touching the 55
let albert manage the 42
let another member of 107
let another minute go 162
let another moment go 48
let another person be 81
let another person do 81
let another person in 79
let another portion of 61
let anyone except the 74
let anyone forget he 42
let anyone forget it 788
let anyone forget the 94
let anyone inside the 93
let anyone through the 107
let chance decide it 44
let chance decide the 41
let eastern europe go 152
let events unfold as 137
let itself become the 77
let market forces do 76
let myself become an 40
let myself become so 150
let myself become the 84
let myself depend on 73
let myself follow my 133
let myself follow the 55
let myself forget it 109
let myself forget the 92
let myself listen to 167
let myself realize it 50
let myself through the 187
let myself wallow in 141
let myself wonder if 69
let nobody forget it 50
let nobody wallop me 67
let praise ascend to 53
let public opinion be 165
let something better be 43
let something happen in 52
let something happen to 618
let strict orders be 74
let virtue follow if 52
let william forget me 75
lid margin should be 213
lid margin through the 48
lid margin toward the 49
lid should always be 161
lie across limits of 259
lie almost beyond the 207
lie almost buried in 60
lie almost wholly in 746
lie almost wholly on 41
lie always afloat at 140
lie behind changes in 145
lie buried behind the 105
lie clearly before us 228
lie clearly beyond the 41
lie deeply buried in 1002
lie deeply hidden in 300
lie deeply rooted in 350
lie fallow before it 116
lie folded already in 587
lie heavily across the 102
lie hidden amongst the 41
lie hidden behind the 2172
lie hidden beyond the 96
lie mostly beyond the 119
lie partly buried in 248
lie partly inside the 110
lie passed through the 146
lie strewn across the 416
lie strewn around the 134
lie thickly around the 41
lie thickly strewn on 81
lie thought proper to 89
lie united states of 45
lie unused without an 48
lie vented through the 75
lie wholly beyond the 1118
lie wholly inside the 286
lie wholly without the 283
lie without regard to 41
lie without shadow of 53
lion dragging something up 43
lion glares through the 89
lip curled upward in 42
lit another burner of 69
lit another candle to 43
log bridge across the 211
log bridge spanning the 63
log building belonging to 48
log building served as 53
log cabins beside the 54
log cabins dotted the 74
log fallen across the 123
log houses marked the 70
log nigger cabins in 48
log placed across the 136
log school houses in 130
log school houses of 85
log scudding through the 84
log sheets should be 154
log should always be 86
log should record the 67
long annual visits to 52
long argued whether the 58
long ascent through the 89
long avenue beyond the 71
long avenue called the 47
long avenue shaded by 70
long avenue through the 62
long avenue toward the 92
long bamboo sticks to 43
long battle before the 41
long battle fought by 61
long battle through the 63
long become inured to 48
long become merged in 104
long before abused to 50
long before access to 40
long before agreed on 50
long before agreed to 129
long before agreeing to 276
long before another is 44
long before another of 126
long before anyone in 696
long before anyone is 107
long before applying the 91
long before arriving at 738
long before arriving in 331
long before assuming the 108
long before become an 169
long before become the 209
long before becoming an 107
long before becoming the 147
long before caused to 140
long before changes in 372
long before chosen as 82
long before crossing the 123
long before deciding on 215
long before deciding to 908
long before dinner is 48
long before dozens of 102
long before driven the 102
long before entering the 968
long before events in 53
long before fallen in 63
long before formed the 47
long before groups of 150
long before hauled up 45
long before issues of 41
long before joined the 47
long before learned the 131
long before learned to 755
long before limiting or 244
long before looked up 96
long before methods of 51
long before midday the 44
long before passed the 81
long before philip of 42
long before reached the 125
long before realizing it 125
long before realizing the 41
long before renewing the 150
long before replying to 47
long before retiring to 40
long before rumors of 110
long before someone in 158
long before someone is 101
long before something of 54
long before spoken of 240
long before starting on 48
long before starting the 203
long before starting to 303
long before stated by 46
long before struck the 69
long before sunset the 218
long before sunset we 43
long before taught the 49
long before theories of 47
long before through the 200
long before turned to 42
long before warned the 50
long before william of 49
long before william the 570
long before yielding to 40
long biceps tendon is 185
long billed itself as 116
long boards placed on 47
long bounds toward the 52
long bridge across the 924
long bridge crossing the 63
long bridge spanning the 257
long bright tongues up 240
long building behind the 59
long carbon chains in 81
long carbon chains of 194
long career became so 69
long career before it 67
long career before the 53
long career marked by 68
long cattle drives to 86
long causal chains of 49
long chains formed by 46
long chatty letter to 101
long circle around the 119
long circle through the 79
long column around the 47
long column through the 98
long course across the 112
long course around the 61
long course before it 43
long course before the 43
long course through the 818
long cruise across the 45
long cruise around the 97
long cruise through the 112
long debate before the 47
long debate ensued as 99
long debate ensued in 163
long debate ensued on 363
long debate showed the 91
long debate whether it 43
long debate whether the 83
long decaying building on 185
long deemed sacred by 49
long delays before the 465
long delays caused by 584
long denied access to 484
long detour across the 116
long detour around it 65
long detour around the 593
long detour through the 983
long double avenue of 87
long double column of 56
long double series of 54
long double strand of 92
long dragging streams of 77
long drives across the 131
long drives around the 94
long drives through the 675
long eastern coasts of 64
long endure unless it 178
long endure unless the 41
long endure without an 57
long endure without the 255
long engaged before the 40
long english seasoning to 42
long enough abroad to 390
long enough absent to 310
long enough across the 125
long enough almost to 400
long enough already to 394
long enough amidst the 40
long enough amongst us 134
long enough anyway to 116
long enough around the 53
long enough before he 1346
long enough before it 1188
long enough before the 6376
long enough before to 498
long enough before we 716
long enough behind the 169
long enough behind to 268
long enough beyond the 120
long enough course to 71
long enough dressing to 70
long enough engaged in 167
long enough indeed to 310
long enough inside the 49
long enough merely to 107
long enough myself to 201
long enough periods of 2137
long enough periods to 1570
long enough played the 101
long enough portion of 49
long enough record of 55
long enough retain the 46
long enough series of 328
long enough should be 105
long enough standing to 68
long enough tenure to 51
long enough thought it 208
long enough through the 520
long enough without it 392
long enough without my 135
long enough without the 242
long evenings around the 136
long evenings before the 104
long evenings passed in 41
long export unless it 53
long fallen before the 40
long fallow periods in 49
long fallow periods of 88
long fallow periods to 73
long figure looked so 42
long flight across the 1116
long flight before the 51
long flight feathers of 87
long flight through the 306
long flight toward the 57
long formed habits of 45
long french window of 99
long friend raised the 51
long friend wasted no 56
long future before it 346
long future before me 61
long future before us 60
long gallop across the 84
long gallop through the 66
long garden behind the 74
long gathering clouds of 71
long gentle knocking is 60
long gentle slopes of 98
long gentle slopes to 103
long gloves covering the 71
long hidden behind the 141
long hollow needle is 71
long hollow valley of 366
long indeed before he 394
long indeed before it 113
long indeed before the 976
long indeed before we 192
long initial periods of 51
long lagged behind in 40
long lagged behind the 236
long lashes rested on 93
long lashes seemed to 73
long lashes sweeping the 51
long latent desire to 49
long latent periods of 119
long letter instead of 57
long letter praising the 62
long letter reached me 73
long letter replying to 50
long letter signed by 236
long lonely evenings in 165
long lonely nights in 91
long lurked behind it 88
long middle portion of 81
long middle section in 45
long middle section is 46
long middle section of 467
long minute before he 488
long minute before the 104
long minute passed as 58
long minute passed in 67
long mirror across the 58
long mirror behind the 334
long mirror beside the 44
long moment before he 4492
long moment before it 151
long moment before the 623
long moment beside the 45
long moment neither of 379
long moment passed as 417
long moment passed in 143
long moment stared at 50
long moment studying the 44
long moment through the 59
long moment watching the 50
long narrow blocks of 103
long narrow bridge of 72
long narrow building in 43
long narrow building of 59
long narrow column of 64
long narrow defile or 173
long narrow feathers of 51
long narrow fields of 91
long narrow flight of 141
long narrow inlets of 99
long narrow island in 68
long narrow island is 40
long narrow island of 818
long narrow island on 99
long narrow isthmus of 49
long narrow pieces of 463
long narrow portion of 83
long narrow ribbon of 255
long narrow ridges of 212
long narrow scroll of 54
long narrow section of 80
long narrow sheets of 206
long narrow streaks of 56
long narrow streams of 46
long narrow street of 225
long narrow stripe of 115
long narrow strips by 47
long narrow strips in 89
long narrow strips of 4272
long narrow strips or 202
long narrow strips to 40
long narrow tongues of 40
long narrow triangle of 68
long narrow trough of 98
long narrow valley in 69
long narrow valley of 693
long narrow valley to 87
long narrow window in 73
long narrow window of 62
long needle should be 55
long needle through the 581
long nights around the 62
long nights before the 62
long nights passed in 69
long parade through the 80
long passed before the 139
long passed beyond the 1123
long passed through the 186
long pauses before the 64
long peeled branch of 44
long periods appears to 58
long periods awaiting the 60
long periods before an 41
long periods before he 46
long periods before it 212
long periods before the 638
long periods beyond the 58
long periods engaged in 53
long periods except in 70
long periods inside the 88
long periods instead of 94
long periods marked by 41
long periods needed to 53
long periods should be 559
long periods tended to 44
long periods through the 160
long periods unable to 41
long periods unless the 88
long periods watching the 52
long periods without an 164
long periods without it 139
long periods without the 1042
long pieces should be 64
long piqued itself on 58
long prayer before the 75
long prided itself as 243
long prided itself in 57
long prided itself on 3330
long prided myself on 41
long proved itself to 143
long proved useful in 55
long public career as 349
long public career by 45
long public career he 276
long public career in 154
long public career of 274
long public career to 83
long public debate on 54
long public letter to 131
long public record of 57
long quarto stages to 90
long queues before the 119
long queues formed at 71
long queues formed in 69
long ramble through the 459
long rambling letter to 128
long rambling speech in 54
long ranked amongst the 40
long relied heavily on 164
long remain before the 52
long remain behind the 44
long remain hidden in 60
long remain immune to 199
long remain latent in 71
long remain master of 62
long remain without an 84
long remain without the 122
long retreat across the 66
long retreat before the 115
long retreat through the 161
long return flight to 107
long return voyage to 102
long russet mantle of 40
long salons fitted up 61
long screws through the 89
long second before he 94
long second before the 44
long second section of 60
long section through the 125
long seemed likely to 66
long seemed obvious to 43
long seemed strange to 41
long session begins in 77
long shadow across the 1262
long shadow before he 45
long shadow before it 106
long shadow through the 51
long shafts through the 55
long shoots should be 89
long should always be 40
long silent moment he 49
long silken lashes of 44
long silken lashes the 56
long silver ribbon of 43
long skirts sweeping the 66
long slopes across the 66
long slopes beyond the 70
long slopes toward the 46
long smooch around the 240
long sought access to 57
long sought answer to 45
long sought object of 55
long sought through the 78
long speech before the 415
long speech praising the 51
long speech seemed to 62
long spinal needle is 109
long splice should be 49
long splice variant of 77
long splint should be 83
long standing arrears of 40
long standing before it 40
long standing before the 120
long standing belief in 66
long standing claims of 55
long standing custom in 89
long standing custom of 269
long standing debate as 45
long standing debate in 75
long standing debate on 107
long standing demand of 1076
long standing demand to 53
long standing desire of 113
long standing desire to 289
long standing disease of 167
long standing feature of 161
long standing friend of 259
long standing habits of 48
long standing hatred of 54
long standing issues in 42
long standing member of 694
long standing nature of 203
long standing ovation at 83
long standing policy of 1464
long standing policy to 83
long standing puzzle of 48
long standing record of 96
long standing should be 188
long standing source of 66
long standing system of 42
long staple cotton as 155
long staple cotton at 52
long staple cotton by 76
long staple cotton in 612
long staple cotton is 495
long staple cotton of 160
long staple cotton on 65
long staple cotton or 52
long staple cotton to 158
long sticks through the 51
long stitch across the 55
long streaks across the 112
long street called the 99
long street climbs to 196
long street shaded by 69
long street through the 42
long street toward the 74
long stride across the 160
long stride through the 42
long stride toward the 748
long strips across the 41
long strips should be 51
long stroll across the 77
long stroll around the 94
long stroll through the 326
long summer evenings at 92
long summer evenings he 115
long summer evenings in 264
long summer evenings of 215
long summer evenings on 131
long summer evenings or 60
long summer evenings the 144
long summer evenings to 115
long summer evenings we 103
long summer mornings the 50
long summer nights in 87
long summer recess in 45
long summer visits to 82
long summer voyage of 57
long sweeping curves of 110
long sweeping vistas in 54
long sylvan arcade is 41
long tables draped in 44
long tables filled the 40
long tables placed in 89
long tables placed on 57
long tables should be 89
long tandem arrays of 105
long therapy should be 96
long thought highly of 63
long thought myself an 46
long tinkle seemed to 82
long tinkle through the 78
long trailing skirts of 43
long trailing sprays of 90
long trails across the 105
long trails through the 71
long training course at 44
long training course in 85
long training course on 41
long training needed to 41
long training periods in 40
long training session at 40
long training session in 86
long training session on 45
long trains through the 47
long tramps across the 90
long tramps through the 612
long travel through the 78
long trench across the 55
long trudge across the 97
long trudge through the 173
long tunnel formed by 41
long tunnel through the 588
long tunnel toward the 64
long twelve leagues to 45
long uphill battle to 99
long vainly sought by 44
long vainly sought to 55
long valley formed by 77
long viewed itself as 186
long violent strain of 47
long vistas through the 134
long vowels should be 130
long voyage aboard the 63
long voyage across the 3194
long voyage amongst the 54
long voyage around the 1359
long voyage before me 71
long voyage before the 45
long voyage before us 201
long voyage breeds on 74
long voyage should be 48
long voyage through the 743
long voyage toward the 43
long wavering bodies of 76
long winter before me 87
long winter before us 61
long winter evenings as 197
long winter evenings at 509
long winter evenings by 1075
long winter evenings he 651
long winter evenings in 1629
long winter evenings is 71
long winter evenings it 64
long winter evenings my 40
long winter evenings of 638
long winter evenings on 161
long winter evenings or 98
long winter evenings the 875
long winter evenings to 610
long winter evenings we 178
long winter nights as 169
long winter nights at 166
long winter nights by 226
long winter nights he 202
long winter nights in 994
long winter nights is 86
long winter nights it 50
long winter nights of 610
long winter nights on 120
long winter nights or 65
long winter nights the 401
long winter nights to 270
long winter nights we 51
long without access to 111
long without anyone to 87
long without arriving at 87
long without claiming the 87
long without injury to 116
long without notice or 183
long without noticing the 55
long without realizing it 148
long without someone to 120
long without something to 174
long without stopping to 63
long wooden bridge at 80
long wooden bridge of 59
long wooden bridge to 59
long wooden building in 44
long wooden building of 46
long wooden handle is 76
long wooden handle of 151
long wooden handle to 53
long wooden tables at 43
long wooden tables in 232
long wooden tables on 45
long wooden tables to 45
long wooden trough in 41
long yellow mantle he 48
long yellow sheets of 41
lot better before the 45
lot better before we 55
lot better chance if 82
lot better chance of 1264
lot better chance to 176
lot better places to 111
lot better suited to 52
lot better without it 52
lot better without the 192
lot number should be 125
lot should always be 55
lot should happen to 58
lot without regard to 101
low annual income of 42
low atomic number in 94
low atomic number is 145
low atomic number of 270
low atomic number or 42
low atomic number so 40
low atomic number the 120
low atomic number to 85
low atomic weight is 72
low atomic weight of 227
low atomic weight the 45
low before dorothy as 84
low bridge across the 95
low building across the 130
low building behind the 67
low building beside the 59
low building called the 64
low bushes behind the 48
low bushes beside the 55
low carbon grades of 61
low carbon steels at 51
low carbon steels by 58
low carbon steels in 145
low carbon steels is 189
low carbon steels of 51
low carbon steels or 46
low carbon steels the 119
low carbon steels to 109
low carbon version of 64
low cardiac output as 193
low cardiac output at 90
low cardiac output by 89
low cardiac output in 858
low cardiac output is 703
low cardiac output of 87
low cardiac output on 74
low cardiac output or 1028
low cardiac output the 64
low cardiac output to 55
low clouds seemed to 63
low copper levels in 76
low cotton prices in 73
low cotton prices of 47
low crouch toward the 46
low crushing strength of 56
low degree should be 47
low demand periods to 42
low dipole moment of 56
low dosage levels of 105
low dublin accent so 110
low eastern portion of 60
low energy cutoff of 91
low energy intake is 51
low energy levels in 178
low energy levels is 51
low energy levels of 257
low energy levels or 42
low energy levels to 77
low energy limits of 49
low energy output of 53
low energy portion of 385
low energy prices in 130
low energy regions of 87
low energy should be 50
low energy states in 70
low energy states of 211
low energy values of 65
low enough almost to 43
low enough before the 41
low enough energy to 124
low enough figure to 58
low enough income to 41
low enough levels of 85
low enough levels to 163
low enough opinion of 66
low enough prices to 178
low enough values of 209
low enough values to 50
low esteem placed on 40
low export duties on 45
low factor loadings in 47
low factor loadings on 69
low family income in 59
low family income is 131
low family income of 56
low family income on 50
low family income or 130
low ground around it 42
low ground around the 242
low ground before the 47
low ground behind the 199
low ground beside the 185
low ground beyond the 156
low ground toward the 59
low hoarse murmur of 56
low impact strength at 50
low impact strength of 78
low import duties on 221
low income blacks in 44
low income earners in 254
low income earners is 56
low income earners to 149
low income family in 60
low income family is 62
low income family to 60
low income groups as 564
low income groups at 145
low income groups by 136
low income groups do 86
low income groups in 1789
low income groups is 540
low income groups it 50
low income groups of 476
low income groups on 103
low income groups or 246
low income groups the 117
low income groups to 697
low income levels in 424
low income levels is 145
low income levels of 615
low income levels or 59
low income levels the 136
low income levels to 127
low income section of 94
low income sector of 79
low income should be 67
low income states in 78
low income status of 227
low income strata of 57
low initial degree of 44
low initial levels of 654
low initial values of 107
low levels across the 44
low levels around the 65
low levels before the 159
low levels reached by 54
low levels reached in 185
low levels result in 72
low levels should be 131
low levels through the 246
low levels toward the 42
low market prices in 65
low market prices of 172
low market shares in 183
low market shares of 93
low market values of 73
low marshy ground at 43
low marshy ground in 111
low marshy ground of 49
low marshy ground on 81
low marshy shores of 86
low mental powers as 58
low mental powers of 54
low morale amongst the 74
low morale caused by 131
low murmur filled the 61
low murmur through the 89
low nature better by 178
low normal levels of 173
low octane number of 40
low opinion indeed of 47
low output levels of 51
low oxygen levels as 60
low oxygen levels at 131
low oxygen levels by 88
low oxygen levels in 1101
low oxygen levels is 68
low oxygen levels of 81
low oxygen levels on 58
low oxygen levels or 112
low oxygen levels to 41
low oxygen supply in 77
low oxygen supply to 80
low oxygen tension as 153
low oxygen tension at 122
low oxygen tension in 1182
low oxygen tension is 233
low oxygen tension of 391
low oxygen tension on 280
low oxygen tension or 186
low oxygen tension the 63
low oxygen tension to 91
low passes across the 115
low passes through the 127
low passion worked up 142
low photon energy of 59
low places filled up 47
low places should be 69
low plains around the 46
low plasma levels in 66
low plasma levels is 51
low plasma levels of 2190
low plasma sodium is 60
low points reached in 81
low points should be 77
low prices before the 134
low prices caused by 313
low prices instead of 156
low prices likely to 50
low prices quoted by 73
low prices reduce the 45
low prices result in 86
low prices seemed to 42
low prices should be 180
low prices through the 164
low profit margin in 139
low profit margin is 86
low profit margin of 125
low profit margin on 237
low profit margin or 56
low profit margin to 56
low public esteem in 105
low public esteem of 78
low public houses in 40
low public opinion of 130
low public spending on 59
low ragged clouds of 48
low rambling building of 49
low relief around the 66
low relief carved on 44
low relief carvings of 104
low relief carvings on 67
low retail prices of 46
low ridges formed by 48
low ritual status in 41
low ritual status of 85
low rumble filled the 58
low safety factor of 52
low salary levels in 52
low salary levels of 52
low scores should be 181
low scores tended to 50
low sexual desire as 144
low sexual desire in 337
low sexual desire is 260
low sexual desire or 112
low signal levels at 45
low signal levels in 79
low signal levels is 73
low signal levels the 150
low sodium intake in 99
low sodium intake is 99
low sodium intake on 93
low sodium intake or 58
low sodium levels in 97
low square towers at 41
low staffing levels in 48
low starting torque is 124
low starting torque of 76
low status groups in 199
low status groups of 43
low status groups to 85
low status member of 58
low status person is 51
low status person to 63
low stools before the 48
low street called the 159
low stress levels at 55
low stress levels in 168
low stress levels is 53
low stress levels the 116
low swampy ground on 74
low tariff policy of 89
low tension system is 51
low tension system of 63
low thermal inertia of 118
low through medium to 53
low thyroid uptake of 44
low tissue levels of 290
low tunnel through the 49
low values around the 40
low values before the 45
low values placed on 47
low values should be 104
low visual acuity in 89
low visual acuity is 47
low visual acuity of 56
low voices across the 44
low voices behind the 74
low voices through the 78
low volume spraying of 57
low wooded shores of 49
low wooden building at 53
low wooden building of 53
low wooden houses in 55
low wooden houses of 43
low wooden houses on 61
low yields caused by 78
lung cancer appears to 201
lung cancer became the 92
lung cancer before the 112
lung cancer begins to 54
lung cancer caused by 1139
lung cancer depend on 55
lung cancer invading the 166
lung cancer linked to 42
lung cancer occurs in 133
lung cancer should be 350
lung cancer treated by 134
lung changes caused by 44
lung damage caused by 519
lung disease appears to 74
lung disease caused by 2371
lung disease occurs in 150
lung disease should be 460
lung fields should be 286
lung injury appears to 45
lung injury caused by 517
lung passes through the 41
lung scanning should be 64
lung should always be 62
lung sounds should be 74
lung tissue appears to 54
lung tissue around the 164
lung tissue beyond the 62
lung tissue caused by 326
lung tissue distal to 225
lung tissue itself is 167
lung tissue levels of 51
lung tissue should be 234
lung tissue through the 73
lung tumors invading the 56
lung volume caused by 130
lung volume changes in 58
lung volume changes on 68
lung volume should be 72
lying abroad amongst the 69
lying almost buried in 53
lying almost wholly in 98
lying around inside the 46
lying around instead of 56
lying around relating to 40
lying around unused in 50
lying around watching tv 76
lying asleep across the 95
lying asleep before the 142
lying asleep beside me 42
lying asleep beside the 82
lying clearly enough on 40
lying deeply buried in 43
lying energy levels in 179
lying energy levels of 1246
lying energy states of 158
lying folded double in 41
lying hidden behind the 319
lying limply across the 48
lying partly across the 80
lying partly buried in 94
lying strewn across the 64
lying supine across the 41
lying wholly beyond the 123
lying wholly without the 63