lacked formal training and 141
lacked indoor plumbing and 138
lacked modern weapons and 71
lacked neither energy nor 152
lacked neither spirit nor 88
lacked neither strength nor 84
lacked neither talent nor 76
lacked proper training and 136
lacunae become filled with 41
ladies endure without them 82
ladies neither smiled nor 110
ladies rarely exceed one 44
lagged behind almost all 57
lagged behind demand and 53
lagged behind demand for 41
lagged behind england and 139
lagged behind europe and 135
lagged behind france and 217
lagged behind prices and 81
landau rolled slowly out 74
landed without mishap and 41
languid amidst lilies and 50
languid degree amused with 46
larger annual income than 149
larger atomic number than 50
larger atomic radius than 73
larger atomic volume than 93
larger atomic weight than 47
larger belief system that 42
larger church building was 92
larger circle around them 94
larger dipole moment than 287
larger dollar amount than 68
larger eastern cities and 46
larger export market for 62
larger family groups are 45
larger family system and 53
larger german cities and 54
larger lifted itself out 157
larger market shares and 216
larger market shares for 78
larger market shares than 159
larger member states and 56
larger member states are 46
larger muscle groups and 95
larger muscle groups are 169
larger nuclear charge than 40
larger police forces and 51
larger policy issues and 64
larger policy issues are 49
larger policy issues that 153
larger pollen grains than 46
larger profit margin for 61
larger profit margin than 73
larger proper motions than 56
larger public sector and 88
larger public sector than 176
larger quartz grains are 56
larger retail stores and 51
larger retail stores are 42
larger safety factor than 89
larger sample volume and 53
larger sampling errors than 75
larger school building was 41
larger school system and 55
larger spatial extent than 72
larger spatial scales and 141
larger spatial scales than 159
larger starting torque than 47
larger states argued that 41
larger stroke volume and 150
larger stroke volume than 85
larger vessel filled with 497
larval stages before they 58
lashes fanned across her 46
lasted through dinner and 60
lastly quills filled with 57
lately amused myself with 43
lately beheld thronged with 78
lately passed through this 120
latest annual edition and 64
latest annual report and 452
latest annual report for 122
latest annual report that 57
latest census showed that 109
latest fashion trends and 142
latest market prices for 41
latest market trends and 78
latest report states that 164
latest sports scores and 58
latest survey showed that 50
latter admits loudly and 103
latter agrees better with 55
latter authors argued that 102
latter authors report that 152
latter authors showed that 712
latter authors stated that 167
latter became famous for 53
latter become coated with 122
latter become filled with 104
latter clearly states that 89
latter factor should not 65
latter figure agrees with 48
latter figure should not 51
latter joined forces with 132
latter little better than 56
latter merely states that 83
latter result agrees with 104
latter result should not 40
latter safely pursue its 44
latter section states that 97
latter should assist him 44
latter should ensure that 43
latter should resign his 44
latter simply states that 47
latter slowly turned his 160
latter slowly turned this 141
latter source states that 125
latter varies greatly with 56
latter writer states that 87
launch escape system and 112
lawyer appearing before him 45
lawyer should advise any 261
lawyer should advise his 353
lawyer should advise you 70
lawyer should always act 219
lawyer should comply with 95
lawyer should confer with 55
lawyer should ensure that 408
lawyer should insist that 655
lawyer should realize that 115
lawyer should review all 237
layers become thicker and 58
layers become thinner and 257
layers remain intact and 46
leaders became fearful that 50
leaders hovers before our 66
leaders joined forces with 239
leaders looked abroad for 44
leaders looked around for 44
leaders openly called for 43
leaders openly stated that 40
leaders served notice that 44
leaders should ensure that 480
leaders should realize that 534
leaders should strive for 73
leaders through training and 41
leaders walter reuther and 50
leakage through cracks and 283
learned another lesson that 204
learned brother shakes his 129
learned english divine and 103
learned english faster than 201
learned enough english and 64
learned friend joined with 42
learned hardly obtain one 147
learned hebrew verses with 50
learned lesson number one 116
learned little except that 149
learned master camden and 43
learned neither wisdom nor 74
learned savant opened his 40
learned something better than 63
learned something through all 81
learned something useful and 90
learned through direct and 47
learned through family and 54
learned through formal and 43
learned through modeling and 156
learned through perils and 44
learned through training and 248
learned whilst residing with 52
learned without effort and 41
learned writer points out 123
legend further states that 94
legions thicken around and 52
lender should ensure that 81
lesions become larger and 126
lessee further agrees that 92
lessee hereby waives all 52
lesser degree france and 67
lesser extent albania and 51
lesser extent brazil and 48
lesser extent canada and 95
lesser extent copper and 51
lesser extent england and 42
lesser extent france and 219
lesser extent french and 84
lesser extent german and 47
lesser extent poland and 42
lesser german states and 73
lesser landed gentry and 77
lesson learned through this 48
letter already quoted that 137
letter always reaches its 120
letter always stands for 93
letter before dinner was 49
letter claiming credit for 53
letter clearly proves that 147
letter clearly showed that 119
letter clearly stated that 266
letter clearly states that 244
letter further stated that 1730
letter further states that 554
letter itself proves that 45
letter merely stated that 166
letter merely states that 71
letter placed before one 72
letter posted without its 45
letter showed clearly that 117
letter simply stated that 215
letter stated further that 207
letter stated simply that 90
letter volume before him 155
letter without assuring you 151
letter without pointing out 42
letter writer argued that 95
letter writer stated that 87
leveling screws should not 77
levels remain higher than 127
levels remain normal and 49
levels remain stable and 42
levels remain stable for 43
levels should ensure that 153
levels through training and 41
levels without regard for 61
licked upward toward her 96
lifted almost bodily out 54
lifted itself higher and 51
lighting system should not 40
lights burned bright and 52
lights danced before her 135
lights danced before his 405
lights dimmed except for 46
lights flashing behind her 49
lights flashing behind him 45
lights gleamed before his 56
lights placed behind them 72
lights slowly dimmed and 60
lights through chinks that 115
likely breeding ground for 172
likely energy source for 52
likely future demand for 614
likely future events and 143
likely future trends and 254
likely starting points for 140
limiting market access for 49
limiting nuclear weapons and 93
liquid alkali metals and 74
liquid alkali metals are 63
liquid assets assets that 51
liquid boiled gently for 56
liquid called plasma and 69
liquid carbon dioxide and 470
liquid carbon dioxide are 154
liquid carbon dioxide can 136
liquid carbon dioxide for 127
liquid carbon dioxide has 111
liquid carbon dioxide may 58
liquid carbon dioxide that 48
liquid carbon dioxide was 187
liquid carbon dioxide with 69
liquid levels inside and 87
liquid limits greater than 54
liquid passes through and 41
liquid passes through this 116
liquid portion before use 58
liquid reflux streams for 57
liquid sulfur dioxide and 194
liquid sulfur dioxide are 76
liquid sulfur dioxide has 61
liquid sulfur dioxide was 86
liquid sulfur dioxide with 43
liquid through muslin and 44
liquor already poured out 65
liquor flowed freely and 152
listed various reasons for 45
lithium levels greater than 52
little actual damage was 71
little actual fighting and 45
little barred window and 108
little barred window that 89
little basket filled with 306
little before dinner and 48
little before eleven and 79
little before eleven that 47
little before reached out 68
little before sunset and 248
little before sunset she 44
little before sunset that 49
little before sunset they 423
little before treated her 67
little before twelve and 47
little better before she 123
little better before they 59
little better before you 117
little better chance for 51
little better chance than 162
little better covering than 47
little better effect than 43
little better english than 101
little better fitted for 448
little better indeed than 101
little better placed than 134
little better pleased with 173
little better plight than 568
little better result than 42
little better rigged out 67
little better suited for 119
little better treated than 284
little beyond french and 50
little beyond middle age 200
little bigger around than 138
little bigger brother are 43
little bottle filled with 154
little breton horses that 42
little breton peasant who 83
little broken english and 144
little brother became not 49
little bundle beside her 45
little carbon dioxide and 273
little carved wooden box 49
little chalet standing near 51
little chance exists for 108
little chance exists that 141
little chance indeed that 118
little chance unless they 44
little changed except for 620
little changed except that 334
little checking around and 45
little chilly breeze was 42
little church building was 94
little church filled with 72
little church stands near 48
little circle around her 143
little circle around him 183
little circle around them 101
little clicking noises with 94
little clicking sounds with 55
little closer around her 187
little closer around him 42
little coloring matter and 56
little common ground and 268
little common ground for 1121
little common ground that 59
little common ground with 1343
little corner called new 46
little corner sticking out 41
little cracking occurs and 61
little crutch beside him 56
little damage except for 96
little damage unless they 42
little deeper before you 43
little demand exists for 71
little direct effort has 95
little dishes filled with 50
little effect beyond that 99
little effect except for 140
little effect except that 279
little effect unless they 257
little effort anyone can 41
little effort through his 69
little english colony near 54
little english donkey who 52
little english streams and 50
little enough chance for 99
little enough excuse for 100
little enough ground for 100
little enough regard for 107
little enough return for 94
little enough reward for 298
little errors better than 88
little except crimes and 75
little except praise for 50
little family around her 57
little family around him 73
little family circle and 43
little family circle for 69
little family circle has 69
little family circle now 46
little family circle that 95
little family circle was 100
little family without any 44
little farther afield and 44
little farther afield than 104
little farther before they 43
little farther beyond that 44
little farther design than 57
little farther inland and 40
little farther inland than 42
little fellow beside him 56
little fellow buried his 50
little fellow called out 85
little fellow opened his 88
little fellow pulled him 596
little fellow raised his 102
little fellow turned and 40
little feudal nobles had 45
little fields girted and 155
little figure before her 225
little figure before him 599
little figure behind her 52
little figure behind him 66
little figure beside her 75
little figure beside him 199
little figure glided out 64
little figure turned and 78
little figure watching him 105
little fishes vanish with 85
little fleeting moment had 40
little flower garden and 69
little flower garden with 57
little folded blades are 59
little formal garden with 41
little formal training and 484
little formal training but 137
little formal training for 186
little formal training was 164
little formal training who 52
little french master who 50
little friend walter has 40
little further afield and 81
little further afield than 73
little further before they 95
little further before you 60
little further effort was 95
little further inland than 141
little further onward was 107
little futile searching for 44
little garden around his 42
little garden before her 54
little garden before his 79
little garden behind and 45
little garden behind his 140
little garden filled with 169
little garden hedged with 46
little garden railed off 50
little garden walled off 56
little garlic powder and 50
little german courts and 56
little german prince that 46
little german tailor and 63
little gourds filled with 40
little grated cheese and 142
little grated cheese may 56
little grated nutmeg and 197
little grated window and 132
little greater degree than 60
little ground exists for 54
little ground indeed for 61
little higher flight than 41
little higher ground than 193
little higher priced than 62
little higher salary than 41
little hollow filled with 81
little houses roofed with 41
little impact unless they 136
little import whither they 50
little island blazed with 60
little island filled with 126
little island nestling all 56
little johnny should not 42
little kindly sermon for 109
little kingdoms before thee 101
little kisses across her 65
little labels sticking out 89
little larger around than 163
little likely anyhow that 46
little marble tables and 60
little market demand for 117
little matter whether any 187
little matter whether they 48
little melted butter and 557
little mental effort and 100
little mental energy for 41
little middle ground for 94
little mirror before her 43
little mission church and 46
little moment whether his 51
little moment whether one 144
little moment whether they 139
little moment whether this 105
little moment whether you 40
little narrow border all 58
little narrow ridges that 70
little nations fighting for 79
little nephew through his 51
little notary should not 70
little object before him 41
little office filled with 42
little parish church and 50
little parish church near 156
little parish church was 41
little parish church with 62
little pewter measure and 63
little phaeton behind him 40
little pierre shouting out 50
little planet called earth 88
little planning before you 77
little pocket bibles with 166
little pocket mirror and 45
little public clamor for 68
little public credit for 113
little public debate and 140
little public demand for 379
little public garden with 44
little public notice and 99
little public notice was 106
little public spirit and 112
little pupils became her 42
little reality behind them 82
little record player and 52
little regard juries are 80
little relief except for 40
little ringlets around her 59
little rivers soaked its 122
little rubber hammer and 56
little rustic bridge that 94
little rustic priest with 56
little school teacher who 40
little scotch horses that 68
little seaside resort with 42
little serious damage was 212
little serious effort has 362
little serious effort was 256
little serious regard for 44
little serious thought and 41
little serious thought had 108
little serious thought has 173
little serious thought was 288
little sexual desire for 57
little shiver through her 104
little silver chains and 47
little silver pieces and 65
little sister sleeps with 40
little slices something thin 84
little something before you 180
little something special for 203
little special training and 60
little special training for 105
little square building with 58
little square filled with 85
little square houses with 58
little square window and 62
little square window with 44
little standing around and 53
little states teemed for 62
little street before him 50
little street urchin who 59
little sunday school boy 49
little tableau before her 66
little tables before them 166
little tables loaded with 82
little tawdry images and 44
little thought before you 62
little thought behind them 64
little thought except for 67
little thought reveals that 1479
little thought showed that 162
little tissue damage and 61
little tissue reaction and 103
little toward carrying out 44
little training before they 42
little tricks played off 60
little trifling cavils and 42
little valley filled with 118
little velvet bonnet and 77
little vessel through its 47
little virtue amongst them 54
little voices almost too 42
little volume filled with 41
little walled garden that 47
little weight beyond that 101
little weight unless they 60
little wicker basket and 72
little wicker basket with 58
little willow towhead out 49
little window looked out 92
little window opened and 49
little without becoming mean 99
little wonder indeed that 94
little wooden bridge and 226
little wooden bridge that 781
little wooden bridge with 51
little wooden building had 41
little wooden building that 155
little wooden building was 67
little wooden building with 251
little wooden chairs and 50
little wooden church and 91
little wooden church that 50
little wooden church was 148
little wooden church with 93
little wooden figure with 51
little wooden horses and 80
little wooden houses and 163
little wooden houses are 66
little wooden houses that 195
little wooden houses with 187
little wooden station and 45
little wooden stools and 48
little wooden tables and 58
little wooden warrior who 51
little wretch before him 121
little yellow canary that 49
little yellow flower that 116
little yellow school bus 155
little yellow sports car 100
lively celtic nature one 68
lively public debate and 42
livery stable keeper and 187
livery stable keeper had 46
livery stable keeper has 63
livery stable keeper who 226
livery walked crowns and 180
lizard passed across his 83
loaded aboard trucks and 63
loaded pistol beside him 57
loaded safety valves are 51
locked firmly around her 49
locked itself behind him 46
locked oceanic basins and 49
lodged itself inside her 45
lonely little orphan lad 118
looked almost bigger than 49
looked almost pleased with 40
looked almost pretty for 99
looked around before going 153
looked around before she 170
looked around before they 93
looked around behind her 129
looked around behind him 555
looked around behind them 43
looked around eagerly for 270
looked around inside and 49
looked around myself and 69
looked around searching for 140
looked around slowly and 257
looked around through his 41
looked around vainly for 90
looked around warily and 79
looked around warily for 41
looked around wildly and 377
looked around wildly but 89
looked around wildly for 2231
looked around wildly with 43
looked better behind than 45
looked better suited for 67
looked better without them 108
looked beyond europe and 43
looked beyond europe for 45
looked beyond myself and 64
looked calmly around him 47
looked eagerly around for 381
looked eagerly around her 41
looked eagerly around him 172
looked eagerly before her 70
looked farther afield and 54
looked farther afield for 134
looked farther afield than 49
looked firmly locked and 43
looked further afield and 101
looked further afield for 251
looked further afield than 73
looked greatly better than 58
looked hardly bigger than 583
looked hardly larger than 144
looked inside myself and 104
looked inside myself for 46
looked keenly around him 46
looked little better than 558
looked little bigger than 49
looked little larger than 78
looked longingly toward his 42
looked mighty pleased with 95
looked neither before nor 42
looked neither better nor 67
looked neither pleased nor 99
looked normal except for 165
looked pretty enough for 41
looked pretty pissed off 53
looked pretty pleased with 161
looked savage beyond his 41
looked serious enough for 53
looked slowly around and 86
looked slowly around her 373
looked slowly around him 320
looked slowly around his 51
looked smugly pleased with 44
looked strange without his 50
looked toward europe and 111
looked toward europe for 101
looked upward toward his 59
looked vainly around for 60
looked warily around him 95
looked wildly around and 208
looked wildly around for 798
looked wildly around her 503
looked wildly around him 563
looked wildly around them 102
loomed darkly before him 55
losses become greater than 53
losses called loudly for 46
losses through disease and 113
losses through erosion and 81
losses through leakage and 74
losses through runoff and 57
losses through vomiting and 68
lovely drawings turner had 48
lovely flower garden and 81
lovely garden filled with 134
lovely leathery throats and 45
lovely little fellow with 49
lovely little valley with 44
lovely object before him 130
lovely silver dishes that 105
lowering cardiac output and 163
lowering import duties and 47
lowering itself behind this 84
lowers cardiac output and 315
lowers stress levels and 93
lowest atomic weight and 48
lowest energy levels and 109
lowest energy levels are 236
lowest energy levels for 141
lowest energy states and 71
lowest energy states are 218
lowest energy states for 60
lowest energy states with 45
lowest income groups and 576
lowest income groups are 460
lowest income groups can 92
lowest income groups had 98
lowest income groups has 77
lowest income groups may 74
lowest income groups than 77
lowest income groups that 52
lowest income groups was 92
lowest income groups who 147
lowest income groups with 61
lowest income levels and 213
lowest income levels are 93
lowest market prices for 40
lumbar spinal column and 141
lumbar spinal nerves and 179
lumbar spinal nerves are 136
luxury resort hotels and 50
lysine coated slides and 92