earthenware vessel filled with 110
eccentric motions through all 60
eccentric muscle actions are 46
educators should ensure that 171
educators should realize that 258
educators should strive for 42
effective annual income tax 136
effective annual rental per 79
effective atomic number and 310
effective atomic number for 139
effective atomic number than 43
effective breeding ground for 49
effective building blocks for 46
effective cardiac output and 107
effective career planning and 115
effective demand exists for 51
effective dipole moment per 44
effective energy source for 56
effective excess demand for 114
effective family planning and 206
effective herbal remedy for 53
effective lesson planning and 47
effective market access and 106
effective market access are 73
effective market access for 133
effective market demand and 56
effective market demand for 197
effective medium theories are 49
effective normal stress and 254
effective normal stress for 53
effective nuclear charge and 427
effective nuclear charge for 437
effective nuclear charge than 83
effective nuclear charge that 254
effective planning system for 56
effective plasma levels are 44
effective plasma volume and 76
effective policy design and 51
effective policy planning and 58
effective public demand for 46
effective public opinion and 123
effective public opinion can 41
effective public opinion was 52
effective public policy and 191
effective public policy for 89
effective public policy that 56
effective public speaker and 337
effective public speaker who 90
effective rallying points for 51
effective remedy exists for 44
effective reward system for 44
effective school leaders are 58
effective school system and 44
effective starting points for 103
effective stress greater than 101
effective stress tensor and 68
effective system design and 90
effective teacher training and 44
effective therapy exists for 143
effective training device for 41
effective training ground for 321
effective training methods and 71
effective training methods for 101
effective training school for 43
effective united nations and 53
efficient building design and 48
efficient energy source for 132
efficient energy source than 56
efficient police system and 44
efficient police system was 55
efficient postal system was 51
efficient public sector and 70
efficient school system and 60
efficient school system for 52
efficient secret police and 79
efficient secret weapons yet 104
efficient supply chains and 76
effulgent thought whence that 45
elaborate scheme worked out 42
elaborate school system was 53
electoral prince without his 54
electoral system allows for 69
electoral system itself and 48
electoral system itself was 68
electoral system should not 103
electrons absorb energy and 65
electrons toward itself and 45
electrons travel faster than 45
eliminate breeding places for 51
eliminate carbon dioxide and 254
eliminate excess demand and 66
eliminate excess demand for 108
eliminate import quotas and 54
eliminate nuclear weapons and 287
eliminate wasted effort and 67
eliminating carbon dioxide and 100
eliminating nuclear weapons and 221
elsewhere vastly greater and 194
emergency escape routes and 70
emergency lighting system and 91
emergency lighting system was 42
emergency lights flashing and 79
emergency special session and 90
emergency special session may 88
emergency special session was 80
emergency training scheme for 56
eminently better fitted for 79
empirical affair unless its 68
empirical findings showed that 113
employees decide whether they 71
employees follow safety and 45
employees should ensure that 56
employees should realize that 300
employees through training and 183
employees without regard for 72
employers should assume that 63
employers should comply with 97
employers should ensure that 812
employers should realize that 112
enactment passed before this 81
encounter another person who 85
encourage better planning and 126
encourage english shipping and 48
encourage family planning and 144
encourage further thought and 98
encourage greater effort and 75
encourage native talent and 53
encourage policy makers and 53
encourage public debate and 94
encourage venous return and 52
encouraging family planning and 190
encouraging public debate and 44
endangered public safety and 44
endocrine glands glands that 93
endocrine glands through its 50
enfeebled troops attest our 49
engagement letter stated that 50
enjoyment creates bodies for 69
enlighten public opinion and 296
enlighten public opinion with 55
entertain serious doubts that 173
entertain visiting rajahs and 59
enumerate without applying them 44
epileptic mothers treated with 114
equipment should comply with 151
equipment should ensure that 48
equitable energy through all 57
equitable manner toward each 106
equitable market access for 113
equitable relief prayed for 101
equitable relief should not 66
equivocal sounds struck his 52
esophageal cancer treated with 246
especially amongst broken and 148
especially around cities and 43
especially around london and 48
especially carbon dioxide and 287
especially citrus fruits and 254
especially eastern europe and 87
especially family planning and 82
especially inviting target for 54
especially middle eastern oil 48
especially nuclear weapons and 82
especially serious matter for 44
especially sulfur dioxide and 77
especially tempting target for 55
especially through prayer and 56
especially through training and 42
especially useful device for 106
especially useful feature for 74
especially useful source for 85
establish another poison and 45
establish another school for 40
establish clearly enough that 88
establish closer liaison with 82
establish common ground and 449
establish common ground for 274
establish common ground with 1117
establish common values and 52
establish credit limits for 63
establish cutoff points for 93
establish direct liaison with 47
establish higher prices for 51
establish initial values for 86
establish itself firmly and 180
establish itself without any 47
establish market prices for 75
establish normal values for 230
establish public credit and 44
establish public policy and 41
establish shared values and 49
establish special courts for 138
establish starting points for 62
establish supply depots and 42
establish target values for 52
establish through routes and 2016
establish through routes with 126
establish whether someone has 48
estimated amount needed for 83
estimated annual budget for 60
estimated annual burden per 115
estimated annual demand for 103
estimated annual income and 143
estimated annual income for 169
estimated annual income tax 54
estimated breeding values for 135
estimated demand curves for 121
estimated factor loadings are 55
estimated factor loadings for 95
estimated factor scores and 60
estimated factor scores for 145
estimated future demand for 196
estimated future income and 80
estimated market values for 113
estimated myself highly nor 144
evaluated without regard for 72
evaluation report stated that 43
evaluation report states that 90
evaluation should ensure that 353
evaluation system should not 50
everybody always called him 58
everybody around pities you 43
everybody looked drowsy and 58
everybody seemed pleased and 49
everybody seemed pleased with 72
everybody stands around and 56
everybody turned around and 84
evidently beside itself with 69
evidently better clothed and 63
evidently better fitted for 79
evidently deeply imbued with 68
evidently greatly pleased with 67
evidently highly pleased with 114
evidently little better than 73
evidently passed through that 105
evidently shared across this 46
evidently something behind all 49
exceedingly abated amongst all 44
exceedingly pretty figure and 45
exceedingly pungent without them 63
exceedingly useful manual for 55
excellent animal models for 74
excellent boarding school for 58
excellent breeding ground for 959
excellent breeding places for 301
excellent bridge player and 86
excellent building blocks for 77
excellent carbon source for 77
excellent career choice for 46
excellent energy source for 71
excellent impact strength and 65
excellent little volume for 54
excellent object lesson for 81
excellent online source for 65
excellent person striving with 52
excellent public speaker and 203
excellent public speaker who 55
excellent review papers and 45
excellent safety record and 304
excellent safety record for 69
excellent safety record with 55
excellent sampling frames for 49
excellent school record and 63
excellent school system and 126
excellent sounding boards for 82
excellent starting places for 97
excellent starting points for 1317
excellent tennis courts and 53
excellent tennis player and 217
excellent training device for 76
excellent training ground and 77
excellent training ground for 2092
excellent training school for 395
excellent verbal skills and 57
excellent visual acuity and 77
excellent visual memory and 45
excellent winter fodder for 81
excessive carbon dioxide and 100
excessive credit creation and 80
excessive energy intake and 88
excessive mental effort and 52
excessive mental strain and 69
excessive muscle tension and 74
excessive public spending and 89
excessive sexual desire and 135
excessive sodium intake and 82
excessive tariff duties and 87
excitation energy greater than 201
excitation energy higher than 234
excitation energy larger than 41
exclaimed loudly enough for 68
exclusive boarding school and 50
exclusive boarding school for 174
exclusive events events that 78
exclusive patent rights and 45
exclusive patent rights are 53
exclusive patent rights for 115
exclusive sexual access and 41
exclusive special offers and 78
exclusive stress before this 40
executive branch actions and 114
executive branch agency and 52
executive branch agency that 177
executive branch agency with 88
executive branch argued that 141
executive branch itself has 42
executive branch should not 137
executive branch through its 105
executive budget system and 67
executive budget system was 84
executive office building and 43
executive powers should not 41
executive should ensure that 133
executive should realize that 131
exercised before assuming that 151
exercised greater caution and 41
exercised greater powers than 97
exercised powers greater than 66
exercised without regard for 170
exercised without stunting and 75
exhausted before resort can 59
exhausted nature proved too 67
exhausted passion caused her 107
exhibited little regard for 64
existence beyond bodily death 73
existence little better than 78
existence reached europe and 44
existence unless something had 52
existence without regard for 46
exothermic reaction occurs and 80
expansive fiscal policy and 119
expansive fiscal policy was 52
expectant mothers should not 126
expedition passed through this 47
expedition sailed without him 55
expedition through mexico and 48
expensive damage before its 43
expensive italian sports car 85
expertise through training and 80
explained clearly enough that 120
explained solely through his 61
explained solely through our 59
explained without assuming any 147
explained without assuming that 1002
explained without invoking any 111
exploited peasant masses who 55
exploited without regard for 193
expressed ardent wishes for 64
expressed bitter regret that 236
expressed clearly enough for 41
expressed doubts whether any 49
expressed doubts whether his 51
expressed doubts whether they 93
expressed doubts whether this 77
expressed herein should not 71
expressed itself clearly and 85
expressed itself through her 56
expressed itself through him 46
expressed itself through his 155
expressed itself through its 89
expressed itself through them 89
expressed little desire for 63
expressed little regard for 65
expressed mainly through his 81
expressed myself better than 105
expressed myself clearly and 42
expressed myself freely and 45
expressed neither assent nor 45
expressed neither hatred nor 51
expressed neither regret nor 79
expressed neither sorrow nor 61
expressed polite regret that 111
expressed public opinion and 155
expressed serious doubts that 653
expressed something bitter that 42
expressed through actions and 65
expressed through formal and 40
expressed through images and 98
expressed through prayer and 73
expressed through ritual and 92
expressed through speech and 116
expressed through verbal and 91
expressed without regard for 49
expresses itself clearly and 49
expresses itself freely and 50
expresses itself simply and 52
expresses itself through all 217
expresses itself through and 43
expresses itself through art 92
expresses itself through both 82
expresses itself through her 56
expresses itself through him 89
expresses itself through his 180
expresses itself through its 458
expresses itself through man 55
expresses itself through one 40
expresses itself through our 130
expresses itself through that 55
expresses itself through them 297
expresses itself through this 130
expresses itself through two 43
expresses itself through you 53
expresses itself without any 51
expresses something deeper than 49
expresses tender feelings does 43
expression always gained him 43
expression became serious and 215
expression clearly showed that 212
expression flitting across her 54
expression flitting across his 102
expression passed across her 125
expression passed across his 205
expression played across his 47
expression showed clearly that 94
expression simply states that 235
expression spreading across his 87
expression through speech and 81
expression turned serious and 109
expression without regard for 84
expressly brands anyone who 62
expressly stated therein that 350
extensive cattle ranching and 66
extensive formal training and 123
extensive grassy plains and 55
extensive public debate and 136
extensive public review and 64
extensive regions abound with 45
extensive teacher training and 64
extensive tissue damage and 409
extensive tissue damage may 61
extensive tissue damage than 45
extensive tissue damage that 115
extensive tissue damage with 46
extensive tissue injury and 55
extensive training before being 44
extensive training before they 243
extinction through nuclear war 57
extraneous fossil bodies are 61
extraneous matter reaches his 68
extremely bright colors and 42
extremely feeble disease had 40
extremely remote chance that 154
extremely serious crimes for 84
extremely serious matter and 109
extremely serious matter for 157
extremely useful advice and 47
extremely useful device for 339
extremely useful feature for 110
extremely useful feature that 109
extremely useful medium for 58
extremely useful source for 154
extremely useful system for 47
extremely useful volume for 44
extremely useful volume that 120
extremity bypass grafts with 67
extremity muscle strength and 172
extremity something sooner than 189
extrinsic clotting system and 60
extrinsic pathway begins with 63