act of parliament imposing duties 88
act of parliament lately passed 70
act of parliament should ordain 47
act of peculation begets another 42
act of perception always something 101
act of separation already passed 55
act of submission merely formal 49
aim of influencing public opinion 59
air to circulate freely around 629
air to circulate freely through 262
all the available carbon dioxide 45
all the available energy levels 58
all the available energy states 44
all the countries except france 46
all the different energy levels 46
all the different morbid states 63
all the different muscle groups 51
all the different stages through 68
all the dissolved carbon dioxide 47
all the documents relating thereto 169
all the fantastic tastes formed 45
all the furniture thereto belonging 74
all the important issues raised 64
all the important issues relating 43
all the important points raised 63
all the important points without 48
all the incidents relating thereto 77
all the lineaments become fluent 106
all the necessary building blocks 135
all the necessary causes concur 134
all the necessary stages without 41
all the outstanding common shares 93
all the principal italian cities 88
all the principal routes through 56
all the prisoners without ransom 99
all the prominent points around 67
all the provinces except ontario 130
all the provinces except prince 86
all the provinces except quebec 428
all the scattered points picked 96
all the secondary school pupils 101
and an activated carbon filter 80
and an assistant united states 131
and an effective public speaker 160
and an efficient police system 44
and an efficient postal system 78
and an efficient sewage system 42
and an energetic public opinion 64
and an estimated twenty million 53
and an excellent public speaker 110
and an excellent safety record 69
and an excellent school system 47
and an excellent tennis player 75
and an excellent training school 40
and an exemplary parish priest 121
and an important factor behind 42
and an important public figure 83
and an important shipping center 44
and an increasingly larger number 63
and an intensely shabby little 78
and an obstinate battle ensued 116
and an occasional stolen glance 52
and an optically active reagent 62
and an outstanding runner spoils 56
and an unlimited further amount 50
and an unusually severe winter 108
and as manifesting active energy 64
and as mercenary standing armies 83
and at different income levels 81
and at different spatial scales 149
and be conceived through itself 117
and be operative without spirit 87
and by desperate effort gained 66
and by influencing public opinion 78
and he commanded whoever should 83
and he hesitated before replying 49
and he indicated another fellow 61
and he proceeded without further 57
and he repeatedly places before 84
and if effective demand changes 40
and in different places around 45
and in different places visiting 117
and in formulating public policy 45
and in influencing public opinion 131
and in influencing public policy 59
and in proceedings before united 96
and is available online through 69
and is available without charge 134
and is conceived through itself 3941
and is conceived through something 56
and is currently managing editor 46
and is published without lawful 41
and is sometimes called animal 47
and it expresses itself through 65
and it gradually became obvious 44
and it manifests itself through 89
and it signifies little whether 107
and my prospects became gloomy 88
and my sprightly cousin already 47
and no arguments should induce 55
and no statesman should forget 44
and of foretelling future events 78
and of redemption through christ 40
and so regularly almost knocking 46
and the abdominal cavity opened 129
and the accessory meningeal artery 155
and the additional burden placed 41
and the aforesaid united states 53
and the afternoon passed without 59
and the aggregate dollar amount 195
and the aggregate supply curves 119
and the alligator snapping turtle 51
and the amplified output signal 54
and the archdukes placed england 43
and the architect leslie martin 49
and the articular cavity formed 40
and the assistant managing editor 66
and the assistant united states 214
and the associated energy levels 57
and the associated fossil plants 48
and the associated starting salary 49
and the australian atomic energy 98
and the australian inland mission 47
and the biological oxygen demand 128
and the california energy crisis 47
and the california school boards 52
and the champagne flowed freely 85
and the chernobyl nuclear reactor 51
and the classroom teacher should 127
and the commercial public sphere 53
and the conclusion forces itself 57
and the conditions before agreed 90
and the conditions relating thereto 66
and the conductor passed through 59
and the conjoined tendon behind 49
and the contracting powers agreed 91
and the contracts relating thereto 148
and the conviction darted through 42
and the conviction forced itself 122
and the conviction forces itself 46
and the conviction gained ground 150
and the copyright notice appearing 123
and the currently maturing portion 59
and the defendant forced denise 44
and the defendant pleaded guilty 95
and the defendant should allege 111
and the destroyer escort samuel 45
and the different native states 189
and the different stages through 65
and the difficult scenes through 104
and the digestive enzyme pepsin 205
and the dissolved carbon dioxide 145
and the documents relating thereto 115
and the economics issues series 47
and the effective atomic number 136
and the effective normal stress 140
and the effective nuclear charge 233
and the electoral system itself 81
and the electrons travel through 59
and the episcopal horses turned 50
and the equestrian statue gleamed 75
and the estimated annual income 50
and the estimated public offering 137
and the executive branch became 60
and the executive branch itself 49
and the executive branch should 205
and the executive branch through 79
and the executive office building 363
and the executive orders issued 59
and the fortunate italian placed 81
and the fortunate result seemed 45
and the frenchman georges braque 43
and the frenchmen looked behind 71
and the functional matching effect 79
and the furniture unhurt whilst 52
and the galapagos marine iguana 46
and the generally narrow extent 44
and the himalayan border states 165
and the holocaust beyond memory 57
and the honorable andrew oliver 86
and the household budget survey 42
and the household genius seemed 43
and the immovable waiter looked 50
and the impression gained ground 155
and the incidents relating thereto 90
and the increasingly global nature 119
and the industrial training boards 88
and the insoluble matter washed 75
and the intervening spaces filled 160
and the interview passed without 80
and the intuitive school affirm 358
and the inventory carrying charge 95
and the knowledge gained thereby 68
and the knowledge gained through 326
and the knowledge thereby gained 82
and the landscape through narrow 55
and the liberated carbon dioxide 95
and the lymphatic glands become 65
and the millicent rogers museum 74
and the milwaukee public museum 218
and the molecular dipole moment 98
and the moonlight streaming through 121
and the municipal police forces 59
and the necessary changes before 48
and the necessary orders issued 57
and the nightgown safely packed 42
and the parchment scroll rolled 130
and the passengers engaged carrying 46
and the perfectly simple belief 63
and the peritoneal cavity closed 46
and the peritoneal cavity opened 191
and the peritoneal cavity washed 54
and the permanent dipole moment 174
and the plaintiff claims neither 46
and the plantation system lasted 47
and the political forces behind 87
and the political public sphere 140
and the political system became 75
and the political system begins 53
and the political system itself 523
and the political system should 94
and the political torpor became 105
and the political vacuum created 55
and the practical jewish spirit 87
and the practical skills needed 77
and the practical wisdom infers 207
and the prejudice became deeper 57
and the president without soviet 44
and the principal allied powers 69
and the principle gained ground 46
and the procedure relating thereto 49
and the proceedings remain secret 342
and the procession passed through 329
and the procession passes through 134
and the procession slowly rolled 131
and the production clearly worked 42
and the prognosis should always 76
and the prospects looked bright 60
and the prospects seemed bright 42
and the provinces beyond jordan 43
and the provincial police forces 43
and the provisions relating thereto 93
and the psychical powers latent 190
and the pulmonary artery arises 396
and the pulmonary venous return 118
and the recherche passed before 55
and the redemption through christ 81
and the reflected lights seemed 106
and the remainder passed through 123
and the remainder passes through 205
and the residuary powers should 40
and the resolution passed without 79
and the resultant carbon dioxide 56
and the resultant public outcry 49
and the resultant sounds differ 42
and the rotational energy levels 200
and the scheduled castes should 43
and the scheduled tribes should 91
and the secondary modern school 146
and the secondary school levels 91
and the secondary school should 52
and the secondary school system 140
and the secondary school teacher 146
and the secondary sexual organs 58
and the sentences already passed 113
and the separated silica washed 131
and the shameless english custom 51
and the shameless ladies danced 64
and the skirmishing became lively 57
and the strategic nuclear forces 82
and the strategic rocket forces 136
and the surrounding aqueous medium 218
and the surrounding elders deemed 77
and the surrounding normal tissue 183
and the surrounding saddle points 59
and the surrounding waters abound 40
and the suspension bridge across 54
and the technical skills needed 139
and the tennessee valley trades 127
and the theoretical issues raised 57
and the transition dipole moment 215
and the travelers walked through 96
and the unusually severe winter 48
and the venerable bishop fisher 44
and the venerable trojan prince 88
and the vertebral column behind 256
and the vertebral venous plexus 231
and the villagers danced wildly 98
and the vocational training system 64
and to conciliate public opinion 51
and to determine public policy 117
and to determine whether changes 140
and to determine whether further 282
and to disregard public opinion 70
and to eliminate carbon dioxide 193
and to eliminate nuclear weapons 96
and to encourage greater public 42
and to enlighten public opinion 126
and to establish common ground 77
and to establish through routes 236
and to formulate public policy 49
and to influence public opinion 1120
and to influence public policy 433
and to introduce another manner 68
and to introduce better methods 66
and to introduce greater purity 49
and to introduce modern methods 88
and to occasional scenic effect 70
and to prescribe better methods 62
and to recommend needed changes 54
and to recommend policy changes 105
and to signalize itself through 73
and to stimulate further thought 137
and to stimulate public debate 53
and to stimulate public opinion 76
and to subjugate public opinion 63
and to transport carbon dioxide 56
and to undertake bolder actions 58
and we ourselves buried beyond 99
and we proceeded without further 57
are an excellent breeding ground 55
are an excellent energy source 41
are an excellent training ground 73
are an extremely useful source 50
are an important breeding ground 51
are an important causal factor 59
are an important energy source 262
are an important factor behind 94
are an important income source 69
are an important limiting factor 85
are an important medium through 47
are an important safety feature 59
are an important target market 42
are an increasingly common feature 175
area of strategic nuclear forces 40
area of strategic nuclear weapons 56
are as perfectly learned without 45
are at different energy levels 71
are in actuality better served 46
are in different energy states 45
are in principle better placed 165
are in themselves almost enough 45
are in themselves neither mental 51
are in themselves proper causes 129
are the different stages through 56
are the elemental building blocks 68
are the functional building blocks 46
are the important building blocks 46
are the necessary building blocks 146
are the necessary starting points 57
are the preferred energy source 118
are the preferred initial therapy 45
are the principal building blocks 132
are the principal energy source 89
are the principal exciting causes 60
are the principal medium through 70
are the universal building blocks 44
art of foretelling future events 187
art of influencing public opinion 89
ask my honorable friend before 55
ask the honorable member whether 115