able in the united states 322
able to be passed through 75
able to be turned around 51
able to be worked through 52
able to do better without 82
able to do enough damage 49
able to do little better 209
able to do little beyond 97
able to do little damage 87
able to do little except 151
able to do little toward 59
able to do little without 60
able to do serious damage 71
able to do something active 44
able to do something before 169
able to do something better 1048
able to do something beyond 44
able to do something further 44
able to do something myself 44
able to do something special 111
able to do something through 51
able to do something toward 254
able to do something useful 527
able to do something without 153
able to do without coercion 45
able to do without further 46
able to eat without vomiting 49
able to go abroad without 68
able to go beyond merely 59
able to go beyond simple 84
able to go beyond simply 42
able to go farther afield 217
able to go further afield 122
able to go shopping without 53
able to go through another 106
able to go through school 70
able to go through spaces 43
able to go through without 85
able to go without drinking 44
able to the united states 137
acid as an energy source 259
acid as it passes through 47
acid as the carbon source 87
acid by an enzyme system 42
acid in an aqueous medium 149
acid in the dropping funnel 55
acid in the manner already 164
acid in the muscle tissue 65
acid in the rhesus monkey 99
acid in the united states 1369
acid is an active poison 77
acid of the acetic series 183
acid of the proper strength 113
acid on the immune system 55
acre as the united states 43
acre in the united states 2473
acre of the public domain 109
acre of the united states 127
acre on the breezy upland 49
acting as an energy source 206
acting as an honest broker 442
acting as an honest person 77
acting as the direct object 101
acting as the honest broker 65
acting as the medium through 173
acting as the united states 153
acting at the middle points 62
acting in an ethical manner 908
acting in an unsafe manner 60
acting in the county courts 40
acting in the double spirit 46
acting in the former office 69
acting in the normal course 403
acting in the proper manner 45
acting in the public domain 158
acting in the public sphere 518
acting in the united states 840
acting on an object causes 92
acting on an object equals 83
acting on the direct orders 146
acting on the distal tubule 102
acting on the entire system 44
acting on the immune system 113
acting on the savage temper 53
acting on the spinal column 63
acting on the subtle nature 125
acting on the system equals 65
acting on the urgent advice 44
acts as an energy filter 46
acts as an energy source 548
acts as an honest broker 53
acts as the direct object 162
acts as the energy source 110
acts as the filter medium 137
acts as the limiting factor 183
acts as the medium through 298
acts as the united states 60
acts by the united states 662
acts in an ethical manner 70
acts in the distal tubule 45
acts in the public sphere 118
acts in the united states 3903
acts in the various states 200
acts of an insane person 90
acts of the allied powers 41
acts of the founding fathers 100
acts of the member states 632
acts of the second nicene 76
acts of the second session 96
acts of the sinful nature 2482
acts of the soviet regime 118
acts of the special session 105
acts of the united nations 460
acts of the united states 10278
acts of the various states 492
acts on the cardiac muscle 42
acts on the distal tubule 524
acts on the immune system 114
acts on the vomiting center 59
acts to the public opinion 72
acts to the serious dramas 42
acts to the united states 126
adding to an already existing 104
adding to an existing system 49
adding to the already existing 1008
adding to the already serious 94
adding to the carbon dioxide 70
adding to the damage already 60
adding to the damage caused 42
adding to the direct effect 47
adding to the existing number 40
adding to the family income 727
adding to the figure reached 45
adding to the latter another 41
adding to the terror already 46
adding to the united states 131
adding up the market values 68
adds in the second edition 64
adds to an already existing 43
adds to the already existing 544
adds to the already serious 52
adds to the carbon dioxide 66
adds to the family income 203
adds to the visual impact 62
aegis of the atomic energy 70
aegis of the jewish agency 67
aegis of the public sector 55
aegis of the united nations 13342
aegis of the united states 3011
agar or in liquid medium 108
aged in the united states 4237
ages in the states created 92
ages in the united states 2436
ages of the church nearest 42
ages of the jewish church 169
ages of the various groups 77
ages of the various strata 60
ages to an extent greater 64
ahead if the united states 44
ahead in the public opinion 68
ahead in the united states 986
ahead of or behind another 53
ahead of the actual events 48
ahead of the allied armies 44
ahead of the allied forces 46
ahead of the common shares 63
ahead of the french column 54
ahead of the german armies 58
ahead of the german troops 53
ahead of the ground forces 54
ahead of the ground troops 80
ahead of the immune system 62
ahead of the invading german 85
ahead of the marching column 54
ahead of the public opinion 101
ahead of the public sector 60
ahead of the secret police 87
ahead of the united nations 83
ahead of the united states 19013
ahead to the section called 180
ahead to the section titled 233
ahead to the united states 172
aide in the united states 58
aids in the united states 456
aids of the divine spirit 93
aids to the united states 71
ailing of the valley should 52
aiming at the latter should 41
aiming at the lowest common 83
aiming at the united states 55
aims at the lowest common 49
aims in the united states 253
aims of the allied nations 53
aims of the allied powers 259
aims of the common market 476
aims of the founding fathers 331
aims of the german policy 49
aims of the modern school 72
aims of the nations engaged 253
aims of the public school 79
aims of the school should 89
aims of the school system 215
aims of the soviet leaders 51
aims of the soviet regime 92
aims of the united nations 7314
aims of the united states 6238
aims of the various groups 93
airing in the united states 202
airs in the united states 42
airs of an assuming pedant 59
airs of the united states 147
airy as the regions through 46
akin to the divine energy 51
akin to the divine nature 110
akin to the feudal system 41
akin to the modern french 40
akin to the united nations 49
akin to the united states 533
algae of the united states 712
ally by the united states 131
ally in the annoying little 52
ally in the united nations 59
ally in the united states 961
ally is the united states 75
ally of the former soviet 92
ally of the german empire 72
ally of the united nations 998
ally of the united states 34847
ally to the united states 1097
along by the gentle breeze 40
along by the swelling waters 95
along by the united states 55
along in the united states 571
along on the ground before 46
along on the ground behind 152
along on the mailed shrimp 48
along to the police station 1254
along to the united states 316
also as an active member 55
also as an avowed reaction 66
also as an energy source 48
also as an object lesson 60
also as the medium through 62
also as the united states 41
also at the deeper levels 50
also at the higher levels 117
also at the london school 51
also at the police station 49
also at the public record 44
also at the united nations 172
also at the united states 235
also be an active member 71
also be an energy source 40
also be an infant school 125
also be the deciding factor 75
also be the direct result 116
also be the limiting factor 67
also be the medium through 53
also by the eastern church 53
also by the greater number 56
also by the powers vested 52
also by the public opinion 41
also by the united nations 515
also by the united states 2424
also in an english edition 61
also in an english version 82
also in no slight degree 85
also in the actual number 47
also in the annual report 117
also in the arctic regions 89
also in the berlin museum 179
also in the bloody events 46
also in the boston museum 77
also in the building trades 47
also in the church itself 43
also in the dative singular 56
also in the deeper layers 153
also in the earlier periods 46
also in the earlier stages 202
also in the eastern portion 58
also in the eastern sector 41
also in the eastern states 104
also in the eastern united 177
also in the english edition 43
also in the english version 83
also in the entire system 80
also in the ethical sphere 52
also in the export market 46
also in the family circle 45
also in the family garden 107
also in the former soviet 165
also in the french manner 40
also in the further course 76
also in the german empire 58
also in the german fashion 52
also in the german middle 42
also in the greater number 96
also in the greater portion 56
also in the higher grades 43
also in the higher levels 55
also in the higher regions 55
also in the immune system 44
also in the initial stages 152
also in the jewish church 41
also in the jordan valley 51
also in the larger cities 119
also in the latter stages 50
also in the middle portion 41
also in the normal course 81
also in the parish church 57
also in the peabody museum 41
also in the planning stages 296
also in the public domain 703
also in the public record 120
also in the public sector 641
also in the public sphere 226
also in the record office 54
also in the sacred writings 57
also in the second column 55
also in the second degree 58
also in the second edition 301
also in the second person 121
also in the second section 56
also in the second volume 241
also in the sexual sphere 53
also in the sierra nevada 149
also in the sunday school 48
also in the united nations 636
also in the united states 29584
also in the various fields 94
also is an active member 92
also is the united states 55
also of an already formed 52
also of an oyster stands 88
also of the animal itself 47
also of the argyle family 61
also of the divine nature 45
also of the earnest desire 70
also of the english church 43
also of the entire system 95
also of the greater number 50
also of the higher orders 48
also of the larger genera 150
also of the medici family 47
also of the middle temple 50
also of the public sector 49
also of the rulers simply 43
also of the sierra nevada 103
also of the united nations 258
also of the united states 4281
also of the usurping houses 43
also on the atomic number 41
also on the eastern border 47
also on the eastern slopes 48
also on the further ground 67
also on the higher ground 44
also on the higher levels 46
also on the united nations 46
also on the united states 244
also to be placed before 40
also to the divine nature 52
also to the entire family 42
also to the entire system 42
also to the greater amount 54
also to the greater number 76
also to the height through 52
also to the higher levels 45
also to the indians dwelling 173
also to the larger number 40
also to the public sector 104
also to the second edition 51
also to the troops before 69
also to the united nations 499
also to the united states 4895
among the ec member states 602
among the eu member states 1634
among the un member states 117
anew in the united states 477
anger at the united states 1282
anger in the united states 1057
anger of the muslim masses 59
anger of the united states 388
anger on the united states 82
angle as it passes through 62
angle in the denser medium 75
angle in the second medium 91
angle in the second triangle 57
angle is the figure formed 149
angle of the bastion caught 110
angle of the greater sciatic 327
angle of the little square 43
angle of the needle should 69
angle of the radius vector 384
angle of the recoil proton 52
angle of the second triangle 207
angle of the steering column 46
angle of the thyroid laminae 72
angle of the triangle formed 109
angle of the united states 112
angle to the nearest degree 280
angle to the nearest minute 207
angle to the radius vector 183
angry at the august salute 97
angry at the united states 1009
angry if the proper methods 42
angry or the tender letter 68
anon to the simple melody 63
ants in the united states 298
ants of the united states 138
apex in the united states 170
apex of the cochlea called 45
apex of the cochlea through 124
apex of the common petiole 43
apex of the entire system 55
apex of the golden triangle 96
apex of the school system 40
apex of the soviet system 49
apex of the triangle formed 789
apex of the triangle pointing 322
apex of the triangle points 291
apex of the triangle should 132
apex of the triangle stands 99
apex of the triangle toward 85
apse of the little church 78
apse of the parish church 109
arch in the united states 121
arch of the bridge behind 44
arch of the raised empire 65
arch of the spinal column 66
arch of the valley behind 55
arch on the square before 44
arcing at the breaker points 62
areas as the united states 627
areas by the radius vector 57
areas by the united nations 53
areas by the united states 413
areas in the arctic regions 90
areas in the border regions 64
areas in the eastern desert 48
areas in the eastern portion 114
areas in the eastern section 51
areas in the eastern sector 51
areas in the eastern states 160
areas in the eastern united 1589
areas in the entire united 48
areas in the former soviet 309
areas in the initial stages 96
areas in the jordan valley 83
areas in the larger cities 155
areas in the public domain 163
areas in the public sector 192
areas in the rhesus monkey 658
areas in the sierra nevada 158
areas in the united states 73297
areas in the various states 123
areas in the visual cortex 158
areas in the visual system 71
areas of the amazon valley 41
areas of the border states 45
areas of the building should 65
areas of the common market 244
areas of the cortex become 51
areas of the county beyond 80
areas of the deccan plateau 58
areas of the dental office 66
areas of the desert locust 59
areas of the eastern desert 107
areas of the eastern portion 50
areas of the eastern states 345
areas of the eastern united 2878
areas of the energy sector 47
areas of the family system 56
areas of the former eastern 245
areas of the former empire 123
areas of the former german 138
areas of the former russian 301
areas of the former soviet 2680
areas of the former steppe 69
areas of the german empire 70
areas of the immune system 89
areas of the jordan valley 89
areas of the larger cities 408
areas of the member states 105
areas of the mental status 56
areas of the mojave desert 86
areas of the monkey cortex 113
areas of the pelvic cavity 58
areas of the persian empire 106
areas of the plains states 40
areas of the public domain 1176
areas of the public sector 2984
areas of the public sphere 162
areas of the rhesus monkey 47
areas of the russian empire 617
areas of the sahara desert 75
areas of the school building 219
areas of the school system 209
areas of the shaded regions 158
areas of the shopping center 191
areas of the sierra nevada 307
areas of the special senses 53
areas of the spinal column 359
areas of the tissue section 45
areas of the united nations 293
areas of the united states 138204
areas of the various groups 44
areas of the various layers 80
areas of the various regions 55
areas of the various states 108
areas of the visual cortex 1044
areas of the visual fields 55
areas of the visual system 283
areas of the yangtze valley 44
areas on the eastern border 55
areas on the eastern slopes 90
areas to the larger cities 60
areas to the united states 772
arming of the united states 99
arms as the united states 58
arms by the united states 1098
arms if the united states 66
arms in the golden temple 47
arms in the hitler salute 96
arms in the little vessel 121
arms in the public square 53
arms in the severe school 144
arms in the united states 3599
arms of an italian ragged 42
arms of my aspiring lifted 44
arms of the allied powers 115
arms of the bridge should 80
arms of the english family 67
arms of the fallen christ 46
arms of the female figure 76
arms of the fighting forces 40
arms of the french empire 62
arms of the german empire 65
arms of the golden fleece 418
arms of the immune system 1541
arms of the infant christ 46
arms of the london county 43
arms of the medici family 302
arms of the middle temple 50
arms of the public sector 47
arms of the russian empire 60
arms of the spiral nebula 64
arms of the united nations 550
arms of the united states 15372
arms on the parade ground 162
arms on the yellow stripe 60
arms to the afghan rebels 143
arms to the united nations 42
arms to the united states 544
army as he passed through 46
army as it passed through 418
army at the afghan passes 66
army at the famous battle 134
army at the second battle 208
army by the united states 123
army if the united states 43
army in the bloody battle 55
army in the famous battle 96
army in the united states 2448
army is of course raised 64
army of the allies should 52
army of the asiatic allies 41
army of the eastern empire 141
army of the empire should 58
army of the french empire 287
army of the french prince 124
army of the german empire 119
army of the persian empire 90
army of the russian empire 45
army of the second empire 155
army of the united nations 241
army of the united slates 124
army of the united stales 99
army of the united states 73180
army on the eastern border 48
army or the secret police 52
army to the united states 207
arts in the middle grades 49
arts in the public school 54
arts in the united states 8278
arts of the united states 750
ashing in an oxygen plasma 57
asking if the united states 191
asking in the united states 47
asking me to behave myself 135
asking me to commit murder 59
asking of the united states 54
asks us to decide whether 77
atom as it passes through 145
atom in the lowest energy 101
atom is the atomic number 84
aunt in the united states 258
aunt to the younger portion 66
auto in the united states 101
away as the united states 1726
away at the crucial moment 200
away at the frozen ground 55
away at the police station 43
away at the united nations 43
away at the united states 113
away by an astute lawyer 95
away by the annual floods 45
away by the common opinion 84
away by the english common 54
away by the farther slopes 61
away by the fierce storms 84
away by the gentle breeze 74
away by the pitching chisel 59
away by the secret police 182
away by the swirling waters 106
away by the united states 543
away by the vacuum system 102
away by the winter floods 57
away in an insane asylum 187
away in an inside pocket 375
away in an unkind spirit 53
away in my bottom drawer 42
away in my nature something 121
away in or before middle 57
away in the arctic regions 43
away in the bottom drawer 391
away in the clothes closet 47
away in the common course 62
away in the corner except 51
away in the fuller modern 53
away in the inmost pocket 49
away in the inside pocket 188
away in the little church 81
away in the manner already 48
away in the normal course 52
away in the normal manner 43
away in the secret drawer 73
away in the secret places 67
away in the sierra nevada 57
away in the swirling waters 57
away in the united states 3702
away in the utmost terror 42
away of the feudal system 80
away of the public domain 97
away of the riches before 48
away of the united states 158
away on an urgent matter 67
away on the desert island 42
away on the gentle breeze 45
away on the higher ground 44
away on the laughing waters 43
away on the summer breeze 44
away to an insane asylum 115
away to the boarding school 57
away to the bright lights 135
away to the cotton fields 46
away to the insane asylum 64
away to the little church 56
away to the nearest market 95
away to the nearest police 52
away to the nearest public 81
away to the police office 86
away to the police station 1339
away to the united states 2298
away to the window without 58
away up the sombre valley 50
away up the street toward 64
axes of the finite strain 113
axes of the future embryo 67
axes of the inertia tensor 121
axes of the quartz grains 91
axes of the quartz wedges 43
axes of the strain tensor 177
axes of the stress tensor 475
axiom in the united states 45
axis as it passes through 52
axis of the bridge should 59
axis of the dipole moment 96
axis of the double source 52
axis of the entire section 339
axis of the entire system 121
axis of the finite strain 244
axis of the future embryo 719
axis of the member should 112
axis of the muscle fibers 237
axis of the pelvic cavity 393
axis of the pelvic outlet 265
axis of the plasma column 151
axis of the radius should 62
axis of the rotating system 84
axis of the second filter 51
axis of the sierra nevada 339
axis of the spinal column 917
axis of the stress tensor 50
axis of the tunnel across 73
axis of the united states 135
axon of the second neuron 123