was abandoned almost without 80
was abandoned without further 85
was abandoned without regret 44
was accordingly argued before 40
was accordingly called before 58
was accordingly passed through 89
was accordingly placed before 108
was accordingly rifled without 43
was afflicted beyond measure 321
was afterward united states 153
was altogether another affair 56
was altogether another matter 531
was altogether another person 54
was altogether beside itself 103
was altogether without effect 62
was altogether without terror 53
was appointed ballet master 191
was appointed brevet second 326
was appointed chapel master 81
was appointed chorus master 66
was appointed deputy county 526
was appointed deputy editor 119
was appointed deputy keeper 97
was appointed deputy master 54
was appointed deputy speaker 73
was appointed deputy united 231
was appointed english consul 175
was appointed french consul 779
was appointed german consul 89
was appointed managing editor 470
was appointed master carver 94
was appointed notary public 483
was appointed novice master 189
was appointed parish priest 1598
was appointed prince regent 111
was appointed public orator 176
was appointed school teacher 49
was appointed second deputy 44
was appointed second keeper 53
was appointed second master 319
was appointed special deputy 121
was appointed special master 309
was appointed station master 40
was appointed sunday school 44
was appointed united nations 175
was appointed united states 21075
was appointed visiting surgeon 81
was appointed without further 60
was approaching another crisis 42
was arraigned before pilate 107
was assistant managing editor 236
was assistant sports editor 70
was assistant united states 522
was astounded beyond measure 161
was available without charge 86
was available without regard 45
was carefully cleaned before 58
was carefully hidden behind 78
was carefully placed inside 41
was carefully tested before 51
was carefully thought through 256
was carefully washed before 43
was carefully watching events 42
was certainly another factor 94
was certainly astute enough 54
was certainly better fitted 49
was certainly better placed 40
was certainly better pleased 117
was certainly better suited 188
was certainly bright enough 151
was certainly clever enough 163
was certainly common enough 257
was certainly formed without 43
was certainly little chance 41
was certainly little enough 175
was certainly lovely enough 42
was certainly modest enough 117
was certainly neither boiled 43
was certainly neither german 63
was certainly obvious enough 83
was certainly pretty enough 184
was certainly serious enough 114
was certainly shrewd enough 86
was certainly simple enough 70
was certainly something almost 81
was certainly something higher 61
was certainly something special 51
was certainly something strange 117
was certainly strange enough 46
was certainly striking enough 99
was chagrined beyond measure 104
was channeled mainly through 48
was collected mainly through 93
was collected through direct 62
was committed before twelve 81
was committed beyond recall 83
was committed without malice 48
was completed before another 383
was completed before august 50
was completed before sunset 127
was completed before winter 52
was completed newton opened 53
was completed without further 1374
was completed without mishap 485
was completed without serious 184
was comprised almost wholly 58
was conceived without sexual 41
was concerned almost solely 197
was concerned almost wholly 229
was concluded without further 163
was conducted almost solely 66
was conducted almost wholly 146
was conducted almost without 43
was conducted amidst admiring 78
was conducted behind closed 334
was conducted mainly through 283
was conducted mostly through 51
was conducted partly through 52
was conducted safely through 46
was conducted slowly through 56
was conducted through barter 68
was conducted through london 111
was conducted through various 117
was conducted without notice 163
was conducted without proper 65
was conducted without regard 173
was conducted without serious 56
was considering various options 59
was continued almost without 189
was continued through another 53
was continued through various 49
was continued without effect 42
was continued without further 366
was continued without serious 75
was customary before starting 61
was delighted beyond measure 2006
was dependent almost wholly 99
was depressed beyond measure 137
was desirable should escape 54
was desperate unless something 46
was destroyed beyond repair 217
was destroyed without remedy 46
was developed almost wholly 64
was developed further through 110
was developed mainly through 77
was developed through various 78
was developed without regard 96
was difficult enough already 149
was difficult enough anyway 58
was difficult enough before 191
was difficult enough without 1226
was discussed behind closed 143
was disgusted beyond measure 107
was dismissed without further 302
was dismissed without injury 104
was dismissed without notice 360
was dismissed without opinion 83
was dismissed without pension 49
was dismissed without serious 47
was distorted almost beyond 85
was disturbed beyond measure 46
was disturbed enough myself 81
was doubtless another factor 47
was doubtless little enough 54
was especially bitter toward 168
was especially common amongst 45
was especially highly valued 40
was especially marked amongst 61
was evidently beside itself 69
was evidently better suited 42
was evidently enjoying itself 70
was evidently gathering behind 135
was evidently greatly pleased 277
was evidently highly amused 40
was evidently highly pleased 256
was evidently highly prized 67
was evidently highly valued 52
was evidently something behind 143
was evidently something inside 103
was exercised mainly through 308
was exercised partly through 66
was exhausted beyond belief 83
was exhausted beyond measure 46
was expressed clearly enough 109
was expressed mainly through 145
was expressed through various 93
was extremely bitter toward 106
was familiarly dubbed harden 117
was flattered beyond belief 54
was flattered beyond measure 160
was forbidden except through 43
was forbidden without special 58
was foreknown indeed before 159
was forgotten almost before 50
was fortunate enough myself 67
was fractured beyond repair 48
was frustrating beyond belief 46
was furnished nicely enough 41
was furnished without charge 58
was generally agreed amongst 105
was generally called simply 46
was generally placed behind 44
was gradually becoming better 81
was gradually becoming clearer 113
was gradually becoming endearing 52
was gradually becoming milder 43
was gradually becoming obvious 56
was gradually becoming something 54
was gradually broken through 82
was gradually building itself 49
was gradually drifting toward 74
was gradually formed through 47
was gradually gathering strength 93
was gradually pushed further 168
was gradually pushed toward 60
was gradually revealing itself 75
was gradually shifting toward 82
was gradually spreading through 72
was gratified beyond measure 321
was horrified beyond measure 66
was humiliated beyond belief 58
was humiliated beyond measure 52
was hurriedly passed through 114
was hurriedly pushed through 69
was illegally seized without 117
was impressed beyond measure 87
was indicated clearly enough 201
was indignant beyond measure 150
was influencing public opinion 49
was ingloriously veiled behind 107
was inhabited almost solely 47
was inhabited almost wholly 49
was insinuating itself through 41
was instantly closed behind 106
was instantly formed around 90
was irritated almost beyond 89
was irritated beyond measure 469
was licentious without spirit 73
was literally beside myself 52
was literally turned inside 214
was literally turned upside 264
was magnified beyond measure 85
was manifesting itself through 150
was materially changed before 44
was miserable enough without 76
was mortified beyond measure 181
was mutilated almost beyond 44
was naturally better suited 42
was naturally enough anxious 54
was naturally enough called 41
was naturally greatly pleased 112
was necessary before another 40
was necessary before anyone 84
was necessary before deciding 40
was necessary before entering 85
was necessary before further 185
was necessary before starting 71
was necessary christ should 53
was necessary something should 96
was nominated without serious 42
was oppressed beyond measure 56
was organized around family 132
was organized mainly around 45
was organized mainly through 79
was overjoyed beyond measure 46
was perfectly normal except 57
was perfectly silent except 42
was performed almost without 47
was performed before starting 46
was performed through special 43
was performed without further 70
was performed without regard 40
was perplexed beyond measure 180
was popularly called bishop 98
was precarious enough without 86
was presented without further 47
was preserved almost intact 198
was preserved mainly through 43
was president william howard 72
was previously inward bursts 55
was previously passed through 81
was privately buried without 53
was projected upward through 47
was prostrate before france 44
was published almost twenty 134
was published another friend 81
was published without actual 50
was published without malice 162
was published without notice 84
was purposely turned toward 93
was radically changed through 61
was reelected united states 97
was repeatedly called before 106
was repeatedly denied access 51
was repeatedly passed through 72
was requested should remain 50
was satisfied except dorothy 79
was scattered through various 40
was shattered almost beyond 48
was shattered beyond recall 41
was shattered beyond repair 1411
was similarly treated except 45
was sometimes called simply 70
was sometimes fondly called 43
was sometimes jokingly called 57
was sometimes levied without 72
was sometimes little better 41
was sometimes placed before 82
was sometimes simply called 82
was sometimes unclear whether 88
was somewhere around twenty 71
was stretched almost beyond 57
was stretched tautly across 77
was stretched upward toward 90
was sumptuous beyond belief 49
was supported almost solely 72
was supported through grants 164
was surprised beyond belief 57
was surprised beyond measure 924
was suspended without notice 48
was suspicious enough already 43
was sustained gently behind 199
was terrified beyond belief 44
was terrified beyond measure 188
was thoroughly cleaned before 87
was thoroughly enjoying myself 403
was thoroughly soaked before 45
was thoroughly tested before 85
was thoroughly washed before 42
was trumpeted through canada 57
was uncertain whether france 40
was universal public opinion 42
was unpopular enough already 45
was virtually without effect 88
was widespread across europe 69
was widespread public demand 54
was wonderful beyond belief 45
was wonderful beyond measure 44
way societies evolve through 84
way whatsoever divert relief 88
who addressed public meetings 65
who afterward became bishop 204
who afterward became famous 757
who afterward became leaders 46
who afterward became madame 84
who afterward became united 44
who afterward became widely 45
who assuredly wanted neither 77
who commanded french troops 56
who commanded twenty legions 61
who committed crimes before 56
who committed crimes should 76
who committed murder before 52
who committed serious crimes 479
who committed treason enough 1135
who committed various crimes 43
who committed violent crimes 403
who contracts german measles 69
who determine public policy 104
who developed cardiac arrest 50
who developed carpal tunnel 64
who developed ovarian cancer 86
who developed thyroid cancer 44
who discharge public trusts 52
who displayed higher levels 67
who dominated public opinion 46
who entertain serious doubts 50
who exhibited higher levels 69
who expressed higher levels 59
who expressed serious doubts 83
who expresses something thereby 47
who expresses strength through 42
who foretells future events 203
who formulate public policy 119
who generally talked gossip 40
who inflicted serious damage 45
who inflicted severe losses 43
who influence fashion always 64
who influence public opinion 524
who influence public policy 132
who inhabited europe before 64
who inhabited mexico before 42
who journeyed through france 42
who naturally expect better 49
who patiently worked through 47
who perceived clearly enough 55
who perceived higher levels 68
who performed various duties 78
who possessed bodily strength 56
who possessed little formal 51
who possessed neither talent 51
who possessed nuclear weapons 54
who possessed special powers 84
who possessed special skills 150
who possessed twenty pounds 83
who possesses greater wisdom 77
who possesses special powers 44
who possesses special skills 61
who practiced family planning 85
who predicted future events 141
who presently became silent 46
who previously lacked access 47
who purchased without notice 64
who regularly appears before 117
who regularly attend church 1083
who regularly attend meetings 208
who regularly attend school 63
who regularly attend sunday 139
who regularly extend credit 81
who regularly passed through 155
who repeatedly commit crimes 44
who repeatedly commit serious 64
who represent public opinion 136
who represent various groups 41
who repressed bitter emotion 49
who sometimes passed through 106
who sometimes plunged deeply 68
who succeeded warren hastings 65
who sustained bodily injury 80
who underwent special training 47
why commercial speech should 44
why gunpowder treason should 234
why occupancy should convey 72
win favorable public opinion 62
with absorbent cotton dipped 122
with absorbent cotton soaked 112
with accessory bypass tracts 139
with additional access points 44
with additional carbon dioxide 79
with additional grated cheese 163
with additional matter relating 48
with additional melted butter 139
with admirable little images 67
with admirable public spirit 76
with advertising claims relating 86
with amazement always spared 42
with ambiguous sexual organs 72
with anhydrous liquid ammonia 62
with arbitrary initial values 109
with assistant united states 108
with associated tissue damage 57
with attitudes toward family 55
with attitudes toward gender 42
with attitudes toward negroes 52
with attitudes toward school 42
with attitudes toward various 42
with automatic record changer 95
with automatic sample changer 116
with autonomic blocking agents 55
with behavioral parent training 111
with bilateral bundle branch 198
with bilateral carpal tunnel 117
with bilateral inguinal hernias 61
with carefully tended flower 105
with centrally placed nuclei 788
with chemicals before planting 44
with clarified butter poured 51
with cocktails before dinner 85
with colloidal thorium dioxide 88
with communist eastern europe 112
with community groups around 54
with composite cyclic therapy 55
with composted sewage sludge 162
with conduction system disease 178
with congenital cardiac disease 566
with congenital cardiac lesions 156
with congenital cystic disease 105
with continued united states 86
with contusions serious enough 50
with corrected visual acuity 59
with countries further afield 50
with decomposing animal matter 217
with defective visual acuity 78
with defendant robert hewitt 50
with depressed cardiac output 67
with depressed mental status 173
with different access levels 49
with different access points 46
with different access rights 241
with different active groups 44
with different angular speeds 41
with different animal models 51
with different atomic masses 246
with different atomic number 62
with different atomic weight 43
with different camera settings 57
with different charge states 375
with different client groups 407
with different demand curves 220
with different disease states 287
with different energy levels 347
with different energy values 101
with different factor prices 51
with different filter settings 142
with different flower colors 60
with different income groups 76
with different income levels 972
with different initial levels 112
with different initial masses 47
with different initial phases 63
with different initial points 62
with different initial random 146
with different initial speeds 51
with different initial states 150
with different initial values 558
with different initial weight 49
with different liquid phases 111
with different marker colors 53
with different market shares 64
with different mental habits 43
with different mental models 86
with different mental states 102
with different mobile phases 121
with different muscle groups 376
with different native tongues 71
with different nuclear masses 49
with different output levels 48
with different oxygen partial 57
with different policy options 70
with different random initial 122
with different random number 407
with different random starting 133
with different reducing agents 59
with different return periods 85
with different salary scales 40
with different sampling methods 51
with different sampling periods 53
with different sexual values 64
with different spatial scales 126
with different speech sounds 123
with different speeds through 76
with different staining methods 53
with different starting points 888
with different starting values 690
with different strength levels 51
with different stress levels 78
with different strike prices 805
with different striking prices 152
with different target groups 284
with different tribal groups 70
with difficult ethical issues 94
with difficult venous access 90
with displaced visual fields 508
with dissolved carbon dioxide 837
with dissolved oxygen levels 84
with effective atomic number 51
with effective family planning 234
with effective nuclear charge 134
with elaborate mosaic floors 43
with electrons orbiting around 144
with electrons spinning around 98
with electrons whirling around 119
with emergency lights flashing 179
with engineered sharps injury 105
with esophageal cancer treated 78
with everybody standing around 139
with excellent english ladies 47
with excellent english skills 55
with excellent verbal skills 53
with excellent visual acuity 85
with excessive sexual desire 96
with executions without number 97
with executive powers should 46
with expensive french labels 41
with extensive carious lesions 94
with extensive dental caries 58
with extensive formal training 47
with extensive muscle damage 75
with extensive pelvic disease 46
with extensive police powers 55
with extensive thermal injury 70
with extensive tissue damage 262
with fictitious events greatly 53
with flattened nuclei placed 40
with fluctuating market prices 45
with formulating public policy 70
with generally higher levels 88
with generally higher values 61
with germinating pollen grains 44
with hydraulic cement mortar 204
with identical demand curves 74
with identical strike prices 74
with impetuous energy striving 55
with important ethical issues 44
with important policy issues 108
with important public duties 137
with important public events 43
with important public issues 96
with important public policy 121
with increasingly higher levels 207
with increasingly larger groups 52
with inelastic demand curves 202
with infantile spasms treated 71
with influencing public opinion 150
with influencing public policy 81
with inhibited female orgasm 41
with inhibited sexual desire 389
with intervening normal mucosa 175
with intervening spaces filled 43
with intrinsic periods greater 139
with irregular darker markings 104
with knowledge already stored 49
with knowledge gained through 563
with litigation charging malice 96
with localized disease treated 57
with loveliest frenzy caught 67
with mainstream public opinion 49
with maintaining public safety 50
with malignant disease should 53
with malignant ovarian tumors 106
with microsoft office access 1043
with molecular masses greater 69
with molecular weight around 138
with molecular weight cutoff 139
with molecular weight greater 250
with molecular weight higher 181
with moonlight streaming through 74
with municipal sewage sludge 288
with mysterious female powers 41
with normalizing united states 51
with nutritive matter causes 45
with occasional gentle stirring 142
with occasional gentle swirling 152
with occasional larger grains 61
with occasional marine shells 54
with occasional slight changes 78
with occasional special issues 76
with occasional vistas through 185
with octagonal corner towers 74
with offensive nuclear weapons 58
with overarching boughs eighty 41
with overlapping visual fields 107
with pancreatic cancer treated 71
with papillary thyroid cancer 398
with penetrating cardiac trauma 46
with penetrating cardiac wounds 88
with permanent dipole moment 113
with permanent kidney damage 59
with permanent magnet rotors 43
with permanent severe visual 65
with phosphate buffer saline 432
with porcelain jacket crowns 401
with porcupine quills worked 53
with predicted normal values 70
with preexisting bundle branch 179
with preexisting cardiac disease 892
with preexisting kidney disease 89
with preserved mental status 155
with preserved muscle tissue 42
with president benito juarez 52
with president carlos andres 74
with president daniel ortega 86
with president kenneth kaunda 178
with president leopold senghor 65
with president manuel quezon 78
with president robert mugabe 135
with president william howard 303
with president wilson before 68
with previously learned skills 60
with previously normal cardiac 42
with previously stored images 68
with primitive mental states 74
with professor wilson knight 40
with prominent jewish leaders 48
with prominent muslim leaders 60
with prominent yellow anthers 59
with propriety justly claims 42
with propriety termed dogmas 42
with prosthetic aortic valves 131
with prosthetic cardiac valves 640
with prosthetic valves should 76
with pulmonary disease caused 86
with pulmonary disease should 93
with pulmonary venous return 92
with qualified teacher status 361
with quantized energy levels 101
with reasonably stable prices 135
with recurrent disease should 42
with recurrent kidney stones 106
with recurrent ovarian cancer 981
with recurrent rectal cancer 121
with reference thereto should 53
with reference toward europe 56
with regularly spaced openings 58
with repetition strain injury 52
with residuary powers vested 388
with resultant tissue damage 102
with resultant tissue hypoxia 55
with rheumatic cardiac disease 56
with roquefort cheese dressing 138
with saturated aqueous sodium 841
with scattered quartz grains 61
with secondary school pupils 699
with secondary school training 99
with selective venous sampling 131
with selective versus random 65
with selfishly availing myself 61
with sequenced flashing lights 471
with seventeen million pounds 51
with sharpened bamboo spikes 131
with sharpened bamboo stakes 154
with sharpened bamboo sticks 140
with similarly minded groups 48
with specified initial values 57
with statutory powers ordering 63
with strategic family therapy 57
with strategic nuclear forces 211
with strategic nuclear weapons 572
with subnormal visual acuity 51
with suggested retail prices 145
with surrounding normal tissue 111
with suspected biliary disease 90
with suspected cardiac disease 151
with suspected carpal tunnel 71
with suspected ovarian cancer 122
with suspected partial common 83
with suspected spinal injury 234
with suspected thyroid disease 80
with suspicious lesions should 43
with technical school training 147
with thoroughly rotted manure 49
with throughout various phases 70
with transient global amnesia 273
with vertebral artery injury 78
with voluntary spending limits 48
with witnesses appearing before 136